============================== echo of input deck ==============================
echo

start feopt1_6311+g-star

geometry units angstroms noautosym noautoz
Fe	0.01762838	1.26842566	0.33015645
B	-0.23704640	-1.84267083	-0.07262281
C	-1.98730155	0.53337821	3.49377681
H	-1.42276839	-0.35063014	3.80469746
H	-2.79519378	0.69388008	4.21561057
H	-1.31444708	1.39052774	3.53172672
C	-2.55481953	0.33990125	2.08874321
C	-3.42886795	1.51169437	1.67303312
H	-2.87883344	2.45309872	1.74085804
H	-4.30528006	1.59208718	2.32426543
H	-3.77742584	1.39212341	0.64351620
C	-3.29615029	-1.00061389	1.98262991
H	-3.62288865	-1.40427874	2.94210186
H	-4.15052324	-0.95519886	1.29788893
C	-1.36710320	-1.14332859	0.87271465
C	0.76504517	1.58994921	-3.25357005
H	0.89040736	2.48322505	-2.63739917
H	0.67995840	1.91136649	-4.29710877
H	1.66601776	0.97771565	-3.15649884
C	-0.46908633	0.80225678	-2.83389278
C	-1.72443256	1.66237376	-2.93107452
H	-2.60675546	1.09923641	-2.61381321
H	-1.88337910	1.99749878	-3.96142100
H	-1.63513527	2.54952853	-2.29919229
C	-0.61214222	-0.51018629	-3.63370167
H	-1.56370917	-0.59038835	-4.16527653
H	0.20603033	-0.67160405	-4.34063346
C	-0.37871003	-0.98736909	-1.45106374
C	3.32694367	0.71996759	2.24457925
H	3.16909805	1.78259853	2.05277353
H	4.36982908	0.59043705	2.55288920
H	2.68409162	0.42815501	3.07894365
C	3.03112537	-0.12110805	1.01264700
C	3.82013048	0.37306812	-0.19824446
H	3.67158158	-0.29306993	-1.05325223
H	4.89195083	0.41158932	0.02336854
H	3.49352752	1.37291414	-0.49370633
C	3.29535955	-1.61258053	1.27842925
H	4.19478352	-1.99710082	0.79371638
H	3.33538819	-1.84687047	2.34784591
C	1.22115009	-1.35398495	0.48757009
C	-0.39244623	-3.44635021	-0.10402057
C	-0.73955446	-4.20245137	-1.22913155
H	-0.89979383	-3.70748817	-2.17970310
C	-0.88519067	-5.58739975	-1.16795951
H	-1.15548944	-6.13877407	-2.06530255
C	-0.68795354	-6.26315306	0.02828931
H	-0.80144073	-7.34284138	0.07803391
C	-0.34359761	-5.53702488	1.16438830
H	-0.18530078	-6.04836677	2.11069517
C	-0.20147284	-4.15804544	1.09017005
H	0.06861501	-3.61867985	1.99570005
C	0.22142413	2.71525754	1.70164326
H	-0.69304117	2.98151884	2.23569372
H	1.05118447	2.60267279	2.40033024
C	0.48443101	3.58535572	0.56143253
C	-0.57353323	4.21065449	-0.14382463
H	-1.58407493	4.12823669	0.25017845
C	-0.34270981	4.97400870	-1.27806231
H	-1.17765611	5.46300698	-1.77280267
C	0.94957382	5.13307063	-1.77535670
H	1.12952734	5.74007105	-2.65714104
C	2.00473686	4.50548713	-1.12250377
H	3.01901216	4.62287312	-1.49471051
C	1.77828903	3.73860728	0.01423921
H	2.62236457	3.30080583	0.53822417
N	-1.44816376	0.11797274	1.13134191
N	-0.30945443	0.29642707	-1.45667007
N	1.59200696	-0.13318012	0.67166087
O	-0.56188891	-1.55759305	-2.65443087
O	-2.33144806	-1.89945265	1.41997204
O	2.16129590	-2.28560134	0.72211436
end

basis
 Fe library "Stuttgart RSC 1997 ECP"
 B library 6-311+g*
 C library 6-311+g*
 O library 6-311+g*
 N library 6-311+g*
 H library 6-311+g*
end

ecp
 Fe library "Stuttgart RSC 1997 ECP"
end

scf
 triplet
 direct
 maxiter 200
 thresh 1.0e-6
 tol2e 1.0e-9
 vectors output fescf_opt.movecs
end

task scf energy

dft
 direct
 grid fine
 xc pbe0
 rodft
 cgmin
 mult 3
 maxiter 200
 vectors input fescf_opt.movecs output feopt18_6311+g-star.movecs
end

driver
 maxiter 200
end

task dft optimize
================================================================================

         Total SCF energy =  -1617.289288270455

       Multipole analysis of the density wrt the origin
       ------------------------------------------------

     L   x y z        total         open         nuclear
     -   - - -        -----         ----         -------
     0   0 0 0     -0.000000     -2.000000    270.000000

     1   1 0 0     -0.034394     -0.043096     -0.304340
     1   0 1 0      1.253320     -4.835039    -23.995310
     1   0 0 1     -0.541478     -1.257034     -6.255999

     2   2 0 0   -153.391315     -1.519708   3370.805513
     2   1 1 0     -4.533826      0.095672    668.442005
     2   1 0 1      0.307879      0.007611   -171.510229
     2   0 2 0   -189.984750    -13.181399   7856.193219
     2   0 1 1     -8.197993     -2.647569   -580.373902

         Total DFT energy =    -1625.953677945575
@ Step       Energy      Delta E   Gmax     Grms     Xrms     Xmax   Walltime
@ ---- ---------------- -------- -------- -------- -------- -------- --------
@    0   -1625.95367795  0.0D+00  0.00459  0.00046  0.00000  0.00000  31794.6
         Total DFT energy =    -1625.953611172002
         Total DFT energy =    -1625.953671052085
@    1   -1625.95367105  6.9D-06  0.00053  0.00015  0.00075  0.00454  37810.5
         Total DFT energy =    -1625.953642011424
         Total DFT energy =    -1625.953673296748
@    2   -1625.95367330 -2.2D-06  0.00054  0.00013  0.00029  0.00203  40406.0
         Total DFT energy =    -1625.953672128503
         Total DFT energy =  -1625.953672128503
@    3   -1625.95367213  1.2D-06  0.00065  0.00012  0.00067  0.00388  41698.2
         Total DFT energy =    -1625.953675810157
         Total DFT energy =  -1625.953675810157
@    4   -1625.95367581 -3.7D-06  0.00047  0.00009  0.00062  0.00428  43111.7
         Total DFT energy =    -1625.953675781708
         Total DFT energy =  -1625.953675781708
@    5   -1625.95367578  2.8D-08  0.00041  0.00008  0.00053  0.00306  44519.8
         Total DFT energy =    -1625.953673182939
         Total DFT energy =  -1625.953673182939
@    6   -1625.95367318  2.6D-06  0.00058  0.00012  0.00075  0.00580  45804.7
         Total DFT energy =    -1625.953675766664
         Total DFT energy =  -1625.953675766664
@    7   -1625.95367577 -2.6D-06  0.00052  0.00009  0.00080  0.00643  47094.1
         Total DFT energy =    -1625.953663455404
         Total DFT energy =    -1625.953677740574

                       DFT Final Molecular Orbital Analysis
                       ------------------------------------

 Vector   40  Occ=2.000000D+00  E=-1.130159D+00

 Vector  269  Occ=0.000000D+00  E= 2.805087D-01

 Vector  270  Occ=0.000000D+00  E= 2.813617D-01

 Vector  271  Occ=0.000000D+00  E= 2.817654D-01

 Vector  272  Occ=0.000000D+00  E= 2.844663D-01

 Vector  273  Occ=0.000000D+00  E= 2.850909D-01

 Vector  274  Occ=0.000000D+00  E= 2.888828D-01

 Vector  275  Occ=0.000000D+00  E= 2.902742D-01

 Vector  276  Occ=0.000000D+00  E= 2.911595D-01

 Vector  277  Occ=0.000000D+00  E= 2.918895D-01

 Vector  278  Occ=0.000000D+00  E= 2.957900D-01

 Vector  279  Occ=0.000000D+00  E= 2.970260D-01

 Vector  280  Occ=0.000000D+00  E= 3.023366D-01

 Vector  281  Occ=0.000000D+00  E= 3.034327D-01

 Vector  282  Occ=0.000000D+00  E= 3.050546D-01

 Vector  283  Occ=0.000000D+00  E= 3.085887D-01

 Vector  284  Occ=0.000000D+00  E= 3.102797D-01

 Vector  285  Occ=0.000000D+00  E= 3.129705D-01

 Vector  286  Occ=0.000000D+00  E= 3.138071D-01

 Vector  287  Occ=0.000000D+00  E= 3.162962D-01

 Vector  288  Occ=0.000000D+00  E= 3.217807D-01

 Vector  289  Occ=0.000000D+00  E= 3.236307D-01

 Vector  290  Occ=0.000000D+00  E= 3.252057D-01

 Vector  291  Occ=0.000000D+00  E= 3.258029D-01

 Vector  292  Occ=0.000000D+00  E= 3.267547D-01

 Vector  293  Occ=0.000000D+00  E= 3.306861D-01

 Vector  294  Occ=0.000000D+00  E= 3.344983D-01

 Vector  295  Occ=0.000000D+00  E= 3.363819D-01

 Vector  296  Occ=0.000000D+00  E= 3.384006D-01

 Vector  297  Occ=0.000000D+00  E= 3.393739D-01

 Vector  298  Occ=0.000000D+00  E= 3.432779D-01

 Vector  299  Occ=0.000000D+00  E= 3.446552D-01

 Vector  300  Occ=0.000000D+00  E= 3.475054D-01

 Vector  301  Occ=0.000000D+00  E= 3.481963D-01

 Vector  302  Occ=0.000000D+00  E= 3.509683D-01

 Vector  303  Occ=0.000000D+00  E= 3.535504D-01

 Vector  304  Occ=0.000000D+00  E= 3.550866D-01

 Vector  305  Occ=0.000000D+00  E= 3.580307D-01

 Vector  306  Occ=0.000000D+00  E= 3.583057D-01

 Vector  307  Occ=0.000000D+00  E= 3.617471D-01

 Vector  308  Occ=0.000000D+00  E= 3.672636D-01

 Vector  309  Occ=0.000000D+00  E= 3.674190D-01

 Vector  310  Occ=0.000000D+00  E= 3.697782D-01

 Vector  311  Occ=0.000000D+00  E= 3.756099D-01

 Vector  312  Occ=0.000000D+00  E= 3.768082D-01

 Vector  313  Occ=0.000000D+00  E= 3.803304D-01

 Vector  314  Occ=0.000000D+00  E= 3.822430D-01

 Vector  315  Occ=0.000000D+00  E= 3.863658D-01

 Vector  316  Occ=0.000000D+00  E= 3.884619D-01

 Vector  317  Occ=0.000000D+00  E= 3.893933D-01

 Vector  318  Occ=0.000000D+00  E= 3.937954D-01

 Vector  319  Occ=0.000000D+00  E= 3.992250D-01

 Vector  320  Occ=0.000000D+00  E= 4.019430D-01

 Vector  321  Occ=0.000000D+00  E= 4.045902D-01

 Vector  322  Occ=0.000000D+00  E= 4.094197D-01

 Vector  323  Occ=0.000000D+00  E= 4.117236D-01

 Vector  324  Occ=0.000000D+00  E= 4.140198D-01

 Vector  325  Occ=0.000000D+00  E= 4.181503D-01

 Vector  326  Occ=0.000000D+00  E= 4.199445D-01

 Vector  327  Occ=0.000000D+00  E= 4.239492D-01

 Vector  328  Occ=0.000000D+00  E= 4.256664D-01

 Vector  329  Occ=0.000000D+00  E= 4.309873D-01

 Vector  330  Occ=0.000000D+00  E= 4.408322D-01

 Vector  331  Occ=0.000000D+00  E= 4.414419D-01

 Vector  332  Occ=0.000000D+00  E= 4.485570D-01

 Vector  333  Occ=0.000000D+00  E= 4.492504D-01

 Vector  334  Occ=0.000000D+00  E= 4.527172D-01

 Vector  335  Occ=0.000000D+00  E= 4.562075D-01

 Vector  336  Occ=0.000000D+00  E= 4.606963D-01

 Vector  337  Occ=0.000000D+00  E= 4.663617D-01

 Vector  338  Occ=0.000000D+00  E= 4.683680D-01

 Vector  339  Occ=0.000000D+00  E= 4.723184D-01

 Vector  340  Occ=0.000000D+00  E= 4.773075D-01

 Vector  341  Occ=0.000000D+00  E= 4.787842D-01

 Vector  342  Occ=0.000000D+00  E= 4.825243D-01

 Vector  343  Occ=0.000000D+00  E= 4.832151D-01

 Vector  344  Occ=0.000000D+00  E= 4.881402D-01

 Vector  345  Occ=0.000000D+00  E= 4.902500D-01

 Vector  346  Occ=0.000000D+00  E= 4.920339D-01

 Vector  347  Occ=0.000000D+00  E= 4.997411D-01

 Vector  348  Occ=0.000000D+00  E= 5.045831D-01

@    8   -1625.95367774 -2.0D-06  0.00039  0.00006  0.00025  0.00138  49944.0
@    8   -1625.95367774 -2.0D-06  0.00039  0.00006  0.00025  0.00138  49944.0

 Output coordinates in angstroms (scale by  1.889725989 to convert to a.u.)

  No.       Tag          Charge          X              Y              Z
 ---- ---------------- ---------- -------------- -------------- --------------
    1 Fe                  26.0000     0.01655920     1.26869390     0.33294433
    2 B                    5.0000    -0.23842152    -1.84138442    -0.07154573
    3 C                    6.0000    -1.98841649     0.53451213     3.49471728
    4 H                    1.0000    -1.42399936    -0.34962892     3.80545790
    5 H                    1.0000    -2.79651761     0.69457133     4.21643252
    6 H                    1.0000    -1.31579835     1.39178337     3.53302508
    7 C                    6.0000    -2.55570255     0.34116393     2.08972779
    8 C                    6.0000    -3.42944900     1.51310920     1.67362149
    9 H                    1.0000    -2.87980498     2.45466292     1.74185323
   10 H                    1.0000    -4.30605970     1.59306193     2.32472032
   11 H                    1.0000    -3.77795997     1.39361606     0.64410539
   12 C                    6.0000    -3.29764111    -0.99899813     1.98343198
   13 H                    1.0000    -3.62431208    -1.40251750     2.94303561
   14 H                    1.0000    -4.15219211    -0.95311721     1.29901576
   15 C                    6.0000    -1.36860913    -1.14255316     0.87361833
   16 C                    6.0000     0.76346791     1.59163146    -3.25229641
   17 H                    1.0000     0.88915976     2.48489530    -2.63615764
   18 H                    1.0000     0.67819152     1.91323880    -4.29580599
   19 H                    1.0000     1.66440218     0.97927669    -3.15564481
   20 C                    6.0000    -0.47078541     0.80392164    -2.83270580
   21 C                    6.0000    -1.72620055     1.66391483    -2.93004096
   22 H                    1.0000    -2.60845371     1.10045497    -2.61306120
   23 H                    1.0000    -1.88505599     1.99949849    -3.96025350
   24 H                    1.0000    -1.63706153     2.55075361    -2.29770143
   25 C                    6.0000    -0.61370287    -0.50856175    -3.63243373
   26 H                    1.0000    -1.56546958    -0.58890576    -4.16359560
   27 H                    1.0000     0.20423876    -0.66989626    -4.33962864
   28 C                    6.0000    -0.38041797    -0.98559596    -1.44972051
   29 C                    6.0000     3.32519361     0.72137637     2.24544659
   30 H                    1.0000     3.16751217     1.78400803     2.05341362
   31 H                    1.0000     4.36797492     0.59167497     2.55405401
   32 H                    1.0000     2.68208470     0.42971040     3.07971732
   33 C                    6.0000     3.02976724    -0.11991354     1.01353506
   34 C                    6.0000     3.81850745     0.37447250    -0.19738193
   35 H                    1.0000     3.66963157    -0.29154625    -1.05244152
   36 H                    1.0000     4.89040364     0.41276994     0.02398987
   37 H                    1.0000     3.49189424     1.37438462    -0.49251353
   38 C                    6.0000     3.29399799    -1.61134946     1.27913658
   39 H                    1.0000     4.19341805    -1.99599508     0.79456475
   40 H                    1.0000     3.33389566    -1.84560589     2.34862338
   41 C                    6.0000     1.22000685    -1.35265577     0.48769586
   42 C                    6.0000    -0.39371848    -3.44506473    -0.10334568
   43 C                    6.0000    -0.74097713    -4.20117445    -1.22838754
   44 H                    1.0000    -0.90125175    -3.70617621    -2.17894515
   45 C                    6.0000    -0.88661742    -5.58614364    -1.16716798
   46 H                    1.0000    -1.15669459    -6.13762115    -2.06449277
   47 C                    6.0000    -0.68946474    -6.26182930     0.02913471
   48 H                    1.0000    -0.80256812    -7.34155198     0.07879891
   49 C                    6.0000    -0.34525484    -5.53569067     1.16527528
   50 H                    1.0000    -0.18724591    -6.04705566     2.11163783
   51 C                    6.0000    -0.20304540    -4.15670504     1.09094236
   52 H                    1.0000     0.06677019    -3.61717143     1.99647370
   53 C                    6.0000     0.21856278     2.71675712     1.70235457
   54 H                    1.0000    -0.69567560     2.98391534     2.23641106
   55 H                    1.0000     1.04801889     2.60340554     2.40126269
   56 C                    6.0000     0.48249347     3.58649612     0.56171728
   57 C                    6.0000    -0.57521386     4.21220198    -0.14365369
   58 H                    1.0000    -1.58576683     4.13001001     0.25036797
   59 C                    6.0000    -0.34411280     4.97543736    -1.27785252
   60 H                    1.0000    -1.17888272     5.46441562    -1.77299407
   61 C                    6.0000     0.94843658     5.13433437    -1.77478548
   62 H                    1.0000     1.12840605     5.74023054    -2.65736501
   63 C                    6.0000     2.00343449     4.50739769    -1.12114437
   64 H                    1.0000     3.01761116     4.62362094    -1.49392215
   65 C                    6.0000     1.77655577     3.73959007     0.01507159
   66 H                    1.0000     2.62059360     3.30203098     0.53943047
   67 N                    7.0000    -1.44867501     0.11874810     1.13280458
   68 N                    7.0000    -0.31164038     0.29826209    -1.45541368
   69 N                    7.0000     1.59063983    -0.13193563     0.67317287
   70 O                    8.0000    -0.56282553    -1.55594562    -2.65313163
   71 O                    8.0000    -2.33324282    -1.89833444     1.42074899
   72 O                    8.0000     2.15968844    -2.28443476     0.72310794

 Total times  cpu:    48964.9s     wall:    49944.1s
