============================== echo of input deck ==============================
echo

start feopt28-02_6311+g-star

geometry units angstroms noautosym noautoz
Fe	0.05101963	1.27003398	0.31785681
B	-0.3035433	-1.83473537	-0.05958153
C	-1.98507458	0.64353667	3.46717331
H	-1.442331	-0.24926612	3.79071199
H	-2.78647742	0.83572854	4.18817795
H	-1.28857303	1.48299304	3.48992022
C	-2.55721237	0.44336747	2.06463654
C	-3.40177875	1.63023268	1.63141884
H	-2.82584321	2.55695366	1.68174139
H	-4.27175475	1.74566919	2.28655129
H	-3.75974241	1.50173443	0.60652534
C	-3.33623832	-0.87800153	1.98063447
H	-3.66644509	-1.25955016	2.94876648
H	-4.1986942	-0.81921305	1.30718583
C	-1.41590148	-1.08926637	0.8708604
C	0.81118966	1.58118495	-3.25360138
H	0.91741512	2.48303364	-2.6456908
H	0.74115134	1.89218095	-4.30157943
H	1.71598064	0.9790228	-3.13477875
C	-0.42222861	0.78678655	-2.84880518
C	-1.68384604	1.63640344	-2.96749731
H	-2.56611548	1.06335173	-2.66677971
H	-1.82665175	1.97478243	-3.99880406
H	-1.61363602	2.52027388	-2.32881894
C	-0.54429857	-0.53380646	-3.638579
H	-1.46023684	-0.59980924	-4.2314542
H	0.31547918	-0.71840119	-4.29057372
C	-0.39751575	-0.99136093	-1.44949561
C	3.29292572	0.62599049	2.30225831
H	3.15319594	1.69080477	2.11088267
H	4.32802104	0.47840957	2.62841975
H	2.6303811	0.34073563	3.1235428
C	3.00495372	-0.20710774	1.06332274
C	3.82956592	0.26889859	-0.13092113
H	3.68087231	-0.39006797	-0.99166024
H	4.89735202	0.28193218	0.1149802
H	3.53330992	1.27732812	-0.42703785
C	3.22041485	-1.70914145	1.33125439
H	4.11537496	-2.11495947	0.85410617
H	3.25280925	-1.93679539	2.40375787
C	1.16310399	-1.38938469	0.51811127
C	-0.51129758	-3.43295078	-0.07402828
C	-0.88721759	-4.18434156	-1.19330431
H	-1.02853747	-3.69207343	-2.14832234
C	-1.09239987	-5.56119256	-1.12133814
H	-1.38358196	-6.10874907	-2.01458643
C	-0.92603593	-6.23226669	0.0808271
H	-1.08444494	-7.30612211	0.14309847
C	-0.55177162	-5.51127262	1.21107345
H	-0.42194948	-6.02913549	2.16289905
C	-0.35229471	-4.14094741	1.12660712
H	-0.06445926	-3.60467979	2.02965166
C	0.27865185	2.73678511	1.65595811
H	-0.63958725	3.05576323	2.1645047
H	1.07378731	2.61534578	2.38749215
C	0.60392214	3.59121794	0.51749692
C	-0.41230657	4.21103682	-0.24796509
H	-1.43897026	4.15219499	0.10422641
C	-0.12182286	4.9483862	-1.38857164
H	-0.92996401	5.44643803	-1.92644765
C	1.19060265	5.07685017	-1.83185783
H	1.43341241	5.67029898	-2.70454647
C	2.20969199	4.45566456	-1.11630593
H	3.24647808	4.54494149	-1.44555058
C	1.92204022	3.71898878	0.02154504
H	2.74115624	3.25526366	0.57061493
N	-1.45748181	0.17494393	1.11325832
N	-0.28416931	0.28886121	-1.4656684
N	1.57098329	-0.1773686	0.69809998
O	-0.57880967	-1.56623249	-2.6483055
O	-2.40300728	-1.81006396	1.42267762
O	2.0737041	-2.34749862	0.7665135
end

basis
 Fe library "Stuttgart RSC 1997 ECP"
 B library 6-311+g*
 C library 6-311+g*
 O library 6-311+g*
 N library 6-311+g*
 H library 6-311+g*
end

ecp
 Fe library "Stuttgart RSC 1997 ECP"
end

scf
 triplet
 direct
 maxiter 200
 thresh 1.0e-6
 tol2e 1.0e-9
 vectors output fescf_opt.movecs
end

task scf energy

dft
 direct
 grid fine
 xc pbe0
 rodft
 cgmin
 mult 3
 maxiter 200
 vectors input fescf_opt.movecs output feopt28-02_6311+g-star.movecs
end

driver
 maxiter 200
end

task dft optimize
================================================================================

         Total SCF energy =  -1617.289848755437

       Multipole analysis of the density wrt the origin
       ------------------------------------------------

     L   x y z        total         open         nuclear
     -   - - -        -----         ----         -------
     0   0 0 0     -0.000000     -2.000000    270.000000

     1   1 0 0      0.027860     -0.176680     -0.964514
     1   0 1 0      1.238026     -4.834992    -23.997193
     1   0 0 1     -0.543694     -1.206985     -6.003933

     2   2 0 0   -153.833041     -1.524926   3424.458529
     2   1 1 0     -5.348881     -0.234489    862.471129
     2   1 0 1      0.160314     -0.066362   -189.580750
     2   0 2 0   -189.888186    -13.181524   7802.189944
     2   0 1 1     -7.880669     -2.521624   -624.179394

         Total DFT energy =    -1625.953310560269
@ Step       Energy      Delta E   Gmax     Grms     Xrms     Xmax   Walltime
@ ---- ---------------- -------- -------- -------- -------- -------- --------
@    0   -1625.95331056  0.0D+00  0.00598  0.00124  0.00000  0.00000  33739.8
         Total DFT energy =    -1625.952198143784
         Total DFT energy =    -1625.953429768874
@    1   -1625.95342977 -1.2D-04  0.00286  0.00088  0.00315  0.02675  41358.6
         Total DFT energy =    -1625.951902921823
         Total DFT energy =    -1625.953525569314
@    2   -1625.95352557 -9.6D-05  0.00339  0.00061  0.00219  0.01517  52350.6
         Total DFT energy =    -1625.952998254110
         Total DFT energy =    -1625.953579684155
@    3   -1625.95357968 -5.4D-05  0.00208  0.00037  0.00172  0.01025  61382.3
         Total DFT energy =    -1625.953605929082
         Total DFT energy =    -1625.953614186438
@    4   -1625.95361419 -3.5D-05  0.00137  0.00021  0.00151  0.00816  64892.7
         Total DFT energy =    -1625.953620419454
         Total DFT energy =    -1625.953623304961
@    5   -1625.95362330 -9.1D-06  0.00113  0.00017  0.00079  0.00463  68402.1
         Total DFT energy =    -1625.953623687099
         Total DFT energy =  -1625.953623687099
@    6   -1625.95362369 -3.8D-07  0.00108  0.00020  0.00148  0.00784  70826.8
         Total DFT energy =    -1625.953634602233
         Total DFT energy =    -1625.953634959429
@    7   -1625.95363496 -1.1D-05  0.00058  0.00011  0.00095  0.00721  74206.9
         Total DFT energy =    -1625.953633287214
         Total DFT energy =  -1625.953633287214
@    8   -1625.95363329  1.7D-06  0.00058  0.00012  0.00089  0.00555  75603.6
         Total DFT energy =    -1625.953626696969
         Total DFT energy =    -1625.953636755330
@    9   -1625.95363676 -3.5D-06  0.00044  0.00011  0.00042  0.00306  77952.2
         Total DFT energy =    -1625.953638388620
         Total DFT energy =  -1625.953638388620
@   10   -1625.95363839 -1.6D-06  0.00039  0.00008  0.00087  0.00479  80434.8
         Total DFT energy =    -1625.953641372932

                       DFT Final Molecular Orbital Analysis
                       ------------------------------------

 Vector   40  Occ=2.000000D+00  E=-1.130196D+00

 Vector  269  Occ=0.000000D+00  E= 2.801330D-01

 Vector  270  Occ=0.000000D+00  E= 2.804761D-01

 Vector  271  Occ=0.000000D+00  E= 2.819696D-01

 Vector  272  Occ=0.000000D+00  E= 2.844009D-01

 Vector  273  Occ=0.000000D+00  E= 2.850747D-01

 Vector  274  Occ=0.000000D+00  E= 2.887169D-01

 Vector  275  Occ=0.000000D+00  E= 2.896076D-01

 Vector  276  Occ=0.000000D+00  E= 2.905242D-01

 Vector  277  Occ=0.000000D+00  E= 2.920460D-01

 Vector  278  Occ=0.000000D+00  E= 2.961357D-01

 Vector  279  Occ=0.000000D+00  E= 2.970893D-01

 Vector  280  Occ=0.000000D+00  E= 3.016051D-01

 Vector  281  Occ=0.000000D+00  E= 3.036386D-01

 Vector  282  Occ=0.000000D+00  E= 3.054423D-01

 Vector  283  Occ=0.000000D+00  E= 3.087347D-01

 Vector  284  Occ=0.000000D+00  E= 3.097095D-01

 Vector  285  Occ=0.000000D+00  E= 3.124006D-01

 Vector  286  Occ=0.000000D+00  E= 3.137591D-01

 Vector  287  Occ=0.000000D+00  E= 3.161215D-01

 Vector  288  Occ=0.000000D+00  E= 3.222975D-01

 Vector  289  Occ=0.000000D+00  E= 3.228978D-01

 Vector  290  Occ=0.000000D+00  E= 3.241106D-01

 Vector  291  Occ=0.000000D+00  E= 3.253318D-01

 Vector  292  Occ=0.000000D+00  E= 3.258852D-01

 Vector  293  Occ=0.000000D+00  E= 3.305594D-01

 Vector  294  Occ=0.000000D+00  E= 3.338090D-01

 Vector  295  Occ=0.000000D+00  E= 3.353364D-01

 Vector  296  Occ=0.000000D+00  E= 3.391064D-01

 Vector  297  Occ=0.000000D+00  E= 3.404900D-01

 Vector  298  Occ=0.000000D+00  E= 3.433600D-01

 Vector  299  Occ=0.000000D+00  E= 3.445022D-01

 Vector  300  Occ=0.000000D+00  E= 3.474804D-01

 Vector  301  Occ=0.000000D+00  E= 3.486530D-01

 Vector  302  Occ=0.000000D+00  E= 3.508185D-01

 Vector  303  Occ=0.000000D+00  E= 3.534947D-01

 Vector  304  Occ=0.000000D+00  E= 3.553182D-01

 Vector  305  Occ=0.000000D+00  E= 3.569942D-01

 Vector  306  Occ=0.000000D+00  E= 3.577549D-01

 Vector  307  Occ=0.000000D+00  E= 3.605067D-01

 Vector  308  Occ=0.000000D+00  E= 3.669104D-01

 Vector  309  Occ=0.000000D+00  E= 3.686423D-01

 Vector  310  Occ=0.000000D+00  E= 3.712955D-01

 Vector  311  Occ=0.000000D+00  E= 3.751123D-01

 Vector  312  Occ=0.000000D+00  E= 3.758798D-01

 Vector  313  Occ=0.000000D+00  E= 3.812897D-01

 Vector  314  Occ=0.000000D+00  E= 3.820160D-01

 Vector  315  Occ=0.000000D+00  E= 3.867259D-01

 Vector  316  Occ=0.000000D+00  E= 3.878216D-01

 Vector  317  Occ=0.000000D+00  E= 3.890743D-01

 Vector  318  Occ=0.000000D+00  E= 3.935568D-01

 Vector  319  Occ=0.000000D+00  E= 3.998007D-01

 Vector  320  Occ=0.000000D+00  E= 4.016227D-01

 Vector  321  Occ=0.000000D+00  E= 4.038220D-01

 Vector  322  Occ=0.000000D+00  E= 4.093068D-01

 Vector  323  Occ=0.000000D+00  E= 4.118450D-01

 Vector  324  Occ=0.000000D+00  E= 4.144065D-01

 Vector  325  Occ=0.000000D+00  E= 4.176618D-01

 Vector  326  Occ=0.000000D+00  E= 4.207328D-01

 Vector  327  Occ=0.000000D+00  E= 4.241602D-01

 Vector  328  Occ=0.000000D+00  E= 4.256563D-01

 Vector  329  Occ=0.000000D+00  E= 4.315457D-01

 Vector  330  Occ=0.000000D+00  E= 4.396234D-01

 Vector  331  Occ=0.000000D+00  E= 4.410851D-01

 Vector  332  Occ=0.000000D+00  E= 4.478519D-01

 Vector  333  Occ=0.000000D+00  E= 4.488960D-01

 Vector  334  Occ=0.000000D+00  E= 4.523133D-01

 Vector  335  Occ=0.000000D+00  E= 4.561500D-01

 Vector  336  Occ=0.000000D+00  E= 4.598322D-01

 Vector  337  Occ=0.000000D+00  E= 4.663731D-01

 Vector  338  Occ=0.000000D+00  E= 4.685277D-01

 Vector  339  Occ=0.000000D+00  E= 4.714668D-01

 Vector  340  Occ=0.000000D+00  E= 4.756629D-01

 Vector  341  Occ=0.000000D+00  E= 4.784117D-01

 Vector  342  Occ=0.000000D+00  E= 4.820959D-01

 Vector  343  Occ=0.000000D+00  E= 4.834020D-01

 Vector  344  Occ=0.000000D+00  E= 4.889921D-01

 Vector  345  Occ=0.000000D+00  E= 4.901471D-01

 Vector  346  Occ=0.000000D+00  E= 4.922444D-01

 Vector  347  Occ=0.000000D+00  E= 4.997157D-01

 Vector  348  Occ=0.000000D+00  E= 5.064594D-01

         Total DFT energy =  -1625.953641372932
@   11   -1625.95364137 -3.0D-06  0.00022  0.00004  0.00039  0.00172  81974.1
@   11   -1625.95364137 -3.0D-06  0.00022  0.00004  0.00039  0.00172  81974.1

 Output coordinates in angstroms (scale by  1.889725989 to convert to a.u.)

  No.       Tag          Charge          X              Y              Z
 ---- ---------------- ---------- -------------- -------------- --------------
    1 Fe                  26.0000     0.04799899     1.26988034     0.31432155
    2 B                    5.0000    -0.30090787    -1.83631730    -0.05818889
    3 C                    6.0000    -1.98406065     0.64403950     3.46726427
    4 H                    1.0000    -1.44082370    -0.24879845     3.79066799
    5 H                    1.0000    -2.78637533     0.83512405     4.18779500
    6 H                    1.0000    -1.29041924     1.48505421     3.49067811
    7 C                    6.0000    -2.55880763     0.44303241     2.06638363
    8 C                    6.0000    -3.40187087     1.63062903     1.63196829
    9 H                    1.0000    -2.82661865     2.55797448     1.68167397
   10 H                    1.0000    -4.27402837     1.74591551     2.28367474
   11 H                    1.0000    -3.75643477     1.50192760     0.60563763
   12 C                    6.0000    -3.33674823    -0.87836060     1.98297885
   13 H                    1.0000    -3.66840252    -1.25976732     2.94990400
   14 H                    1.0000    -4.19374334    -0.81939387     1.30266477
   15 C                    6.0000    -1.41497289    -1.09060031     0.87071795
   16 C                    6.0000     0.81062255     1.58053191    -3.25328553
   17 H                    1.0000     0.91778428     2.48147420    -2.64490926
   18 H                    1.0000     0.74064393     1.89134183    -4.30121162
   19 H                    1.0000     1.71530838     0.97774278    -3.13494911
   20 C                    6.0000    -0.42315202     0.78602440    -2.84739231
   21 C                    6.0000    -1.68413073     1.63631252    -2.96667895
   22 H                    1.0000    -2.56780607     1.06525180    -2.66758566
   23 H                    1.0000    -1.82626486     1.97361153    -3.99876311
   24 H                    1.0000    -1.61398094     2.52196924    -2.33015965
   25 C                    6.0000    -0.54528072    -0.53201048    -3.64028409
   26 H                    1.0000    -1.46144843    -0.59957109    -4.23169754
   27 H                    1.0000     0.31416580    -0.71828286    -4.29043515
   28 C                    6.0000    -0.39578530    -0.99203151    -1.44716321
   29 C                    6.0000     3.29299177     0.62595922     2.30300506
   30 H                    1.0000     3.15517991     1.69132865     2.11114658
   31 H                    1.0000     4.32822143     0.47797182     2.62832674
   32 H                    1.0000     2.63116882     0.34287832     3.12554981
   33 C                    6.0000     3.00244684    -0.20612471     1.06352743
   34 C                    6.0000     3.82776308     0.27061391    -0.12981408
   35 H                    1.0000     3.67906152    -0.38890342    -0.98988071
   36 H                    1.0000     4.89564397     0.28065686     0.11311524
   37 H                    1.0000     3.53308413     1.27953681    -0.42800139
   38 C                    6.0000     3.22269377    -1.70492897     1.33164633
   39 H                    1.0000     4.11365394    -2.11492930     0.85209674
   40 H                    1.0000     3.25027743    -1.94001331     2.40118710
   41 C                    6.0000     1.16551524    -1.38893138     0.51558727
   42 C                    6.0000    -0.51285497    -3.43375781    -0.07565839
   43 C                    6.0000    -0.88883440    -4.18524040    -1.19464908
   44 H                    1.0000    -1.02711239    -3.69285657    -2.15002640
   45 C                    6.0000    -1.09155385    -5.56241003    -1.12137473
   46 H                    1.0000    -1.38254137    -6.11038413    -2.01431196
   47 C                    6.0000    -0.92524284    -6.23472867     0.08148707
   48 H                    1.0000    -1.08356299    -7.30829098     0.14057104
   49 C                    6.0000    -0.55331850    -5.51302209     1.21169418
   50 H                    1.0000    -0.41946327    -6.02143374     2.16333724
   51 C                    6.0000    -0.35344898    -4.14192105     1.12521288
   52 H                    1.0000    -0.06347727    -3.60602029     2.02656711
   53 C                    6.0000     0.27614647     2.73974522     1.65698811
   54 H                    1.0000    -0.64371099     3.05145530     2.15698983
   55 H                    1.0000     1.07876738     2.61549820     2.38499472
   56 C                    6.0000     0.60600309     3.58305152     0.51219091
   57 C                    6.0000    -0.41017736     4.21204326    -0.24841613
   58 H                    1.0000    -1.43799602     4.15360319     0.10316879
   59 C                    6.0000    -0.11825026     4.95282344    -1.38413043
   60 H                    1.0000    -0.92279519     5.44623044    -1.92298506
   61 C                    6.0000     1.19646608     5.08296075    -1.82682238
   62 H                    1.0000     1.42413216     5.67141680    -2.71019121
   63 C                    6.0000     2.21227471     4.44914219    -1.11890298
   64 H                    1.0000     3.24320588     4.54324168    -1.44975209
   65 C                    6.0000     1.92432561     3.70653053     0.01970841
   66 H                    1.0000     2.73712346     3.26189195     0.58619401
   67 N                    7.0000    -1.45924432     0.17593024     1.11258000
   68 N                    7.0000    -0.28524849     0.28868605    -1.46475914
   69 N                    7.0000     1.57056494    -0.17859355     0.69657745
   70 O                    8.0000    -0.57917443    -1.56805777    -2.64799256
   71 O                    8.0000    -2.40028254    -1.81121349     1.42784777
   72 O                    8.0000     2.07327516    -2.34686400     0.76938045

 Total times  cpu:    80451.0s     wall:    81974.1s
