============================== echo of input deck ==============================
echo

start feopt44_6311+g-star

geometry units angstroms noautosym noautoz
Fe	0.05921237	1.27495421	0.36181024
B	-0.18915106	-1.84056423	-0.04438994
C	-1.13594554	0.40834447	3.88809071
H	-0.50716633	-0.47331468	4.04433479
H	-1.76587301	0.53894498	4.77438579
H	-0.48046268	1.27515882	3.79899106
C	-1.99842313	0.23741613	2.63868425
C	-2.96013935	1.40016394	2.45830544
H	-2.42446507	2.35126649	2.42665591
H	-3.67098203	1.4462237	3.2897596
H	-3.52729841	1.29564054	1.52935656
C	-2.72878226	-1.11252061	2.66389461
H	-2.83363444	-1.54249682	3.66113253
H	-3.71234843	-1.0661073	2.18287731
C	-1.08936435	-1.1981484	1.15385083
C	-0.13623838	1.60821754	-3.34921196
H	0.18539059	2.49075067	-2.79243039
H	-0.51949459	1.94288101	-4.31914846
H	0.73918206	0.97700742	-3.52606027
C	-1.20919334	0.84040436	-2.5868817
C	-2.42126219	1.72308038	-2.31090558
H	-3.18189106	1.17238704	-1.7498649
H	-2.86948774	2.06674729	-3.24914777
H	-2.13677063	2.60602149	-1.73268653
C	-1.60444033	-0.46277105	-3.31349135
H	-2.68014741	-0.54872626	-3.48894138
H	-1.07651568	-0.60308244	-4.26012775
C	-0.70159169	-0.96461665	-1.31880184
C	3.73961754	0.80150746	1.44699926
H	3.54290246	1.86205242	1.27960297
H	4.82365216	0.67726156	1.5414157
H	3.27781746	0.51741643	2.39624663
C	3.20214113	-0.05361914	0.31056328
C	3.70630406	0.43758324	-1.04522661
H	3.38493858	-0.23861903	-1.84292851
H	4.80017297	0.48921453	-1.06019812
H	3.3116073	1.43030659	-1.27303342
C	3.53940237	-1.539323	0.51878928
H	4.3232668	-1.91296317	-0.14306478
H	3.80669628	-1.76788353	1.55646253
C	1.34208269	-1.31307753	0.18248058
C	-0.26234623	-3.44979714	-0.10079145
C	0.00286304	-4.17654989	1.06993525
H	0.21588253	-3.64286133	1.99352836
C	0.00469517	-5.56476286	1.09858042
H	0.21379569	-6.08757437	2.02864515
C	-0.2612385	-6.28536201	-0.0615727
H	-0.26177695	-7.3720811	-0.04682311
C	-0.52321864	-5.59498946	-1.237093
H	-0.73120487	-6.1418178	-2.15361043
C	-0.52211175	-4.20125697	-1.25246034
H	-0.73226345	-3.69493141	-2.1873186
C	0.52756578	2.69697255	1.69726134
H	-0.22280261	2.94237403	2.45080386
H	1.50889801	2.57285892	2.15667387
C	0.48674156	3.57762308	0.53861531
C	-0.69333581	4.27347557	0.16978684
H	-1.55133047	4.2379227	0.83728814
C	-0.75560431	5.03978594	-0.98150086
H	-1.66880858	5.58091013	-1.21548379
C	0.34648593	5.13737046	-1.83319309
H	0.29748549	5.74880018	-2.72876753
C	1.50631133	4.444081	-1.51430469
H	2.37648734	4.51452513	-2.16169218
C	1.57362116	3.66803896	-0.36040521
H	2.50962906	3.18660726	-0.09676702
N	-1.12888527	0.05609835	1.45424986
N	-0.6606942	0.32074183	-1.31851531
N	1.72321652	-0.0863148	0.28720109
O	-1.21625375	-1.52260133	-2.427973
O	-1.89974242	-1.98233834	1.88202933
O	2.32438439	-2.23043678	0.2128341
end

basis
 Fe library "Stuttgart RSC 1997 ECP"
 B library 6-311+g*
 C library 6-311+g*
 O library 6-311+g*
 N library 6-311+g*
 H library 6-311+g*
end

ecp
 Fe library "Stuttgart RSC 1997 ECP"
end

scf
 triplet
 direct
 maxiter 200
 thresh 1.0e-6
 tol2e 1.0e-9
 vectors output fescf_opt.movecs
end

task scf energy

dft
 direct
 grid fine
 xc pbe0
 rodft
 cgmin
 mult 3
 maxiter 200
 vectors input fescf_opt.movecs output feopt44_6311+g-star.movecs
end

driver
 maxiter 200
end

task dft optimize
================================================================================

         Total SCF energy =  -1617.287821311460

       Multipole analysis of the density wrt the origin
       ------------------------------------------------

     L   x y z        total         open         nuclear
     -   - - -        -----         ----         -------
     0   0 0 0     -0.000000     -2.000000    270.000000

     1   1 0 0     -0.272902     -0.169137     -0.956503
     1   0 1 0      1.290660     -4.863884    -24.147734
     1   0 0 1     -0.440859     -1.338358     -6.646843

     2   2 0 0   -153.918855     -1.515506   3239.997340
     2   1 1 0     -6.172810     -0.088570    229.835573
     2   1 0 1     -0.943722     -0.005554   -175.020694
     2   0 2 0   -189.559801    -13.305395   7876.195591
     2   0 1 1     -7.366613     -2.956184   -549.961011

         Total DFT energy =    -1625.953794065260
@ Step       Energy      Delta E   Gmax     Grms     Xrms     Xmax   Walltime
@ ---- ---------------- -------- -------- -------- -------- -------- --------
@    0   -1625.95379407  0.0D+00  0.00480  0.00054  0.00000  0.00000  33526.2
         Total DFT energy =    -1625.953678053778
         Total DFT energy =    -1625.953783807620
@    1   -1625.95378381  1.0D-05  0.00084  0.00018  0.00089  0.00565  37359.9
         Total DFT energy =    -1625.953757519568
         Total DFT energy =    -1625.953788073216
@    2   -1625.95378807 -4.3D-06  0.00072  0.00015  0.00041  0.00344  40943.0
         Total DFT energy =    -1625.953782718613
         Total DFT energy =    -1625.953791164337
@    3   -1625.95379116 -3.1D-06  0.00060  0.00012  0.00045  0.00339  43858.1
         Total DFT energy =    -1625.953793840430
         Total DFT energy =  -1625.953793840430
@    4   -1625.95379384 -2.7D-06  0.00054  0.00013  0.00099  0.00412  45234.7
         Total DFT energy =    -1625.953782607372
         Total DFT energy =    -1625.953797044361
@    5   -1625.95379704 -3.2D-06  0.00055  0.00013  0.00049  0.00326  48147.2
         Total DFT energy =    -1625.953800293104
         Total DFT energy =  -1625.953800293104
@    6   -1625.95380029 -3.2D-06  0.00081  0.00011  0.00102  0.00408  49400.0
         Total DFT energy =    -1625.953804195194
         Total DFT energy =  -1625.953804195194
@    7   -1625.95380420 -3.9D-06  0.00049  0.00012  0.00082  0.00598  50657.9
         Total DFT energy =    -1625.953807168354
         Total DFT energy =  -1625.953807168354
@    8   -1625.95380717 -3.0D-06  0.00022  0.00005  0.00064  0.00228  52040.3
         Total DFT energy =    -1625.953808194724
         Total DFT energy =  -1625.953808194724
@    9   -1625.95380819 -1.0D-06  0.00038  0.00008  0.00080  0.00333  53552.9
         Total DFT energy =    -1625.953809410348
         Total DFT energy =  -1625.953809410348
@   10   -1625.95380941 -1.2D-06  0.00038  0.00007  0.00091  0.00397  54935.3
         Total DFT energy =    -1625.953810709111
         Total DFT energy =  -1625.953810709111
@   11   -1625.95381071 -1.3D-06  0.00025  0.00007  0.00098  0.00401  56331.8
         Total DFT energy =    -1625.953812445550

                       DFT Final Molecular Orbital Analysis
                       ------------------------------------

 Vector   40  Occ=2.000000D+00  E=-1.130644D+00

 Vector  269  Occ=0.000000D+00  E= 2.773852D-01

 Vector  270  Occ=0.000000D+00  E= 2.801572D-01

 Vector  271  Occ=0.000000D+00  E= 2.824208D-01

 Vector  272  Occ=0.000000D+00  E= 2.847094D-01

 Vector  273  Occ=0.000000D+00  E= 2.865263D-01

 Vector  274  Occ=0.000000D+00  E= 2.875948D-01

 Vector  275  Occ=0.000000D+00  E= 2.908370D-01

 Vector  276  Occ=0.000000D+00  E= 2.924843D-01

 Vector  277  Occ=0.000000D+00  E= 2.931177D-01

 Vector  278  Occ=0.000000D+00  E= 2.957546D-01

 Vector  279  Occ=0.000000D+00  E= 2.972483D-01

 Vector  280  Occ=0.000000D+00  E= 3.023161D-01

 Vector  281  Occ=0.000000D+00  E= 3.038111D-01

 Vector  282  Occ=0.000000D+00  E= 3.070448D-01

 Vector  283  Occ=0.000000D+00  E= 3.089573D-01

 Vector  284  Occ=0.000000D+00  E= 3.099379D-01

 Vector  285  Occ=0.000000D+00  E= 3.127496D-01

 Vector  286  Occ=0.000000D+00  E= 3.155707D-01

 Vector  287  Occ=0.000000D+00  E= 3.172592D-01

 Vector  288  Occ=0.000000D+00  E= 3.208598D-01

 Vector  289  Occ=0.000000D+00  E= 3.242851D-01

 Vector  290  Occ=0.000000D+00  E= 3.253430D-01

 Vector  291  Occ=0.000000D+00  E= 3.272418D-01

 Vector  292  Occ=0.000000D+00  E= 3.288669D-01

 Vector  293  Occ=0.000000D+00  E= 3.308477D-01

 Vector  294  Occ=0.000000D+00  E= 3.333483D-01

 Vector  295  Occ=0.000000D+00  E= 3.364456D-01

 Vector  296  Occ=0.000000D+00  E= 3.393524D-01

 Vector  297  Occ=0.000000D+00  E= 3.400758D-01

 Vector  298  Occ=0.000000D+00  E= 3.442400D-01

 Vector  299  Occ=0.000000D+00  E= 3.443402D-01

 Vector  300  Occ=0.000000D+00  E= 3.471482D-01

 Vector  301  Occ=0.000000D+00  E= 3.478654D-01

 Vector  302  Occ=0.000000D+00  E= 3.515008D-01

 Vector  303  Occ=0.000000D+00  E= 3.517298D-01

 Vector  304  Occ=0.000000D+00  E= 3.552217D-01

 Vector  305  Occ=0.000000D+00  E= 3.578183D-01

 Vector  306  Occ=0.000000D+00  E= 3.605290D-01

 Vector  307  Occ=0.000000D+00  E= 3.610130D-01

 Vector  308  Occ=0.000000D+00  E= 3.652507D-01

 Vector  309  Occ=0.000000D+00  E= 3.693738D-01

 Vector  310  Occ=0.000000D+00  E= 3.712147D-01

 Vector  311  Occ=0.000000D+00  E= 3.762037D-01

 Vector  312  Occ=0.000000D+00  E= 3.789441D-01

 Vector  313  Occ=0.000000D+00  E= 3.801995D-01

 Vector  314  Occ=0.000000D+00  E= 3.837036D-01

 Vector  315  Occ=0.000000D+00  E= 3.862295D-01

 Vector  316  Occ=0.000000D+00  E= 3.885274D-01

 Vector  317  Occ=0.000000D+00  E= 3.902891D-01

 Vector  318  Occ=0.000000D+00  E= 3.937356D-01

 Vector  319  Occ=0.000000D+00  E= 3.986730D-01

 Vector  320  Occ=0.000000D+00  E= 4.011351D-01

 Vector  321  Occ=0.000000D+00  E= 4.051874D-01

 Vector  322  Occ=0.000000D+00  E= 4.082330D-01

 Vector  323  Occ=0.000000D+00  E= 4.094768D-01

 Vector  324  Occ=0.000000D+00  E= 4.126932D-01

 Vector  325  Occ=0.000000D+00  E= 4.155655D-01

 Vector  326  Occ=0.000000D+00  E= 4.176740D-01

 Vector  327  Occ=0.000000D+00  E= 4.210759D-01

 Vector  328  Occ=0.000000D+00  E= 4.281013D-01

 Vector  329  Occ=0.000000D+00  E= 4.324563D-01

 Vector  330  Occ=0.000000D+00  E= 4.413948D-01

 Vector  331  Occ=0.000000D+00  E= 4.444163D-01

 Vector  332  Occ=0.000000D+00  E= 4.478160D-01

 Vector  333  Occ=0.000000D+00  E= 4.516249D-01

 Vector  334  Occ=0.000000D+00  E= 4.555833D-01

 Vector  335  Occ=0.000000D+00  E= 4.579206D-01

 Vector  336  Occ=0.000000D+00  E= 4.640292D-01

 Vector  337  Occ=0.000000D+00  E= 4.648269D-01

 Vector  338  Occ=0.000000D+00  E= 4.669487D-01

 Vector  339  Occ=0.000000D+00  E= 4.720465D-01

 Vector  340  Occ=0.000000D+00  E= 4.744465D-01

 Vector  341  Occ=0.000000D+00  E= 4.786601D-01

 Vector  342  Occ=0.000000D+00  E= 4.826637D-01

 Vector  343  Occ=0.000000D+00  E= 4.851374D-01

 Vector  344  Occ=0.000000D+00  E= 4.856659D-01

 Vector  345  Occ=0.000000D+00  E= 4.913840D-01

 Vector  346  Occ=0.000000D+00  E= 4.936490D-01

 Vector  347  Occ=0.000000D+00  E= 4.964452D-01

 Vector  348  Occ=0.000000D+00  E= 5.051003D-01

         Total DFT energy =  -1625.953812445550
@   12   -1625.95381245 -1.7D-06  0.00017  0.00004  0.00034  0.00175  57712.9
@   12   -1625.95381245 -1.7D-06  0.00017  0.00004  0.00034  0.00175  57712.9

 Output coordinates in angstroms (scale by  1.889725989 to convert to a.u.)

  No.       Tag          Charge          X              Y              Z
 ---- ---------------- ---------- -------------- -------------- --------------
    1 Fe                  26.0000     0.04853837     1.27792367     0.35067109
    2 B                    5.0000    -0.19792741    -1.83721774    -0.05548917
    3 C                    6.0000    -1.14427895     0.41240871     3.87636347
    4 H                    1.0000    -0.51314781    -0.46776128     4.03081915
    5 H                    1.0000    -1.77319014     0.54128155     4.76367961
    6 H                    1.0000    -0.49136153     1.28089842     3.78575201
    7 C                    6.0000    -2.00759463     0.24046840     2.62791339
    8 C                    6.0000    -2.96774610     1.40422134     2.44642109
    9 H                    1.0000    -2.42986622     2.35426453     2.41667896
   10 H                    1.0000    -3.68021918     1.45127943     3.27637941
   11 H                    1.0000    -3.53276188     1.30162856     1.51600028
   12 C                    6.0000    -2.73761299    -1.10962508     2.65447139
   13 H                    1.0000    -2.84035540    -1.53934026     3.65205865
   14 H                    1.0000    -3.72213158    -1.06429230     2.17540197
   15 C                    6.0000    -1.09869779    -1.19549355     1.14348416
   16 C                    6.0000    -0.14559472     1.60759096    -3.35777811
   17 H                    1.0000     0.17917653     2.48711195    -2.79809768
   18 H                    1.0000    -0.52781359     1.94598939    -4.32680025
   19 H                    1.0000     0.72753865     0.97341393    -3.53588071
   20 C                    6.0000    -1.22064966     0.84215678    -2.59666746
   21 C                    6.0000    -2.43067905     1.72775103    -2.32290131
   22 H                    1.0000    -3.19165505     1.18158319    -1.75803509
   23 H                    1.0000    -2.87968351     2.06805445    -3.26191001
   24 H                    1.0000    -2.14271619     2.61251425    -1.74927393
   25 C                    6.0000    -1.61724970    -0.46070007    -3.32291649
   26 H                    1.0000    -2.69311038    -0.54581113    -3.49814418
   27 H                    1.0000    -1.08986427    -0.60158811    -4.26970041
   28 C                    6.0000    -0.71317563    -0.96264522    -1.32882705
   29 C                    6.0000     3.73634249     0.80611042     1.43858389
   30 H                    1.0000     3.54095732     1.86765114     1.27566778
   31 H                    1.0000     4.82090270     0.68040362     1.52450787
   32 H                    1.0000     3.28221520     0.52123490     2.39108563
   33 C                    6.0000     3.19318255    -0.04814945     0.30353614
   34 C                    6.0000     3.69828602     0.44071262    -1.05288255
   35 H                    1.0000     3.37674285    -0.23649913    -1.84959446
   36 H                    1.0000     4.79220292     0.49147266    -1.06705707
   37 H                    1.0000     3.30478849     1.43345939    -1.28263661
   38 C                    6.0000     3.52920041    -1.53377546     0.51380017
   39 H                    1.0000     4.31678878    -1.90727975    -0.14349471
   40 H                    1.0000     3.79016678    -1.76190227     1.55314132
   41 C                    6.0000     1.33325060    -1.30788688     0.17153756
   42 C                    6.0000    -0.26977266    -3.44631860    -0.11320718
   43 C                    6.0000    -0.00380791    -4.17304053     1.05724271
   44 H                    1.0000     0.20930913    -3.63914252     1.98067840
   45 C                    6.0000    -0.00245516    -5.56123231     1.08598767
   46 H                    1.0000     0.20709443    -6.08395221     2.01598285
   47 C                    6.0000    -0.26941324    -6.28172713    -0.07401894
   48 H                    1.0000    -0.27145632    -7.36839523    -0.05933234
   49 C                    6.0000    -0.53159851    -5.59129976    -1.24940521
   50 H                    1.0000    -0.74002798    -6.13823589    -2.16576469
   51 C                    6.0000    -0.52989123    -4.19761796    -1.26497982
   52 H                    1.0000    -0.74096288    -3.69142050    -2.19966619
   53 C                    6.0000     0.52000737     2.69836934     1.68677950
   54 H                    1.0000    -0.23169777     2.93972865     2.44017873
   55 H                    1.0000     1.50192649     2.58007233     2.14616827
   56 C                    6.0000     0.47692616     3.57771275     0.52779901
   57 C                    6.0000    -0.70281070     4.27403750     0.16006849
   58 H                    1.0000    -1.56052333     4.23709559     0.82768470
   59 C                    6.0000    -0.76460760     5.04196357    -0.99003349
   60 H                    1.0000    -1.67716550     5.58460421    -1.22244732
   61 C                    6.0000     0.33735936     5.13932204    -1.84188409
   62 H                    1.0000     0.28927215     5.75263658    -2.73626042
   63 C                    6.0000     1.49627904     4.44398965    -1.52480861
   64 H                    1.0000     2.36563667     4.51333984    -2.17332916
   65 C                    6.0000     1.56333088     3.66637182    -0.37191650
   66 H                    1.0000     2.49819207     3.18188875    -0.10983563
   67 N                    7.0000    -1.13797770     0.05874087     1.44393928
   68 N                    7.0000    -0.67331926     0.32264776    -1.32809996
   69 N                    7.0000     1.71406780    -0.08112973     0.27882127
   70 O                    8.0000    -1.22892183    -1.52055399    -2.43749098
   71 O                    8.0000    -1.90934040    -1.97955203     1.87156815
   72 O                    8.0000     2.31597437    -2.22488738     0.20166479

 Total times  cpu:    56338.6s     wall:    57713.0s
