============================== echo of input deck ==============================
echo

start feopt09_6311+g-star

geometry units angstroms noautosym noautoz
Fe	0.05308431	1.28052583	0.3123435
B	-0.3054361	-1.82500453	-0.04728875
C	-2.02981637	0.69045992	3.44829658
H	-1.49328329	-0.19829064	3.79330764
H	-2.84520843	0.8907391	4.15147511
H	-1.33663155	1.53179983	3.4752312
C	-2.58026399	0.47248099	2.0401646
C	-3.41571772	1.6556707	1.57853703
H	-2.8408814	2.5834137	1.62685641
H	-4.2984314	1.77881355	2.21440441
H	-3.75343162	1.51535024	0.54797813
C	-3.35821809	-0.8495183	1.95870147
H	-3.69690559	-1.22527271	2.92543282
H	-4.21029514	-0.79377539	1.27204333
C	-1.42430766	-1.07175995	0.86894535
C	0.8446327	1.56450137	-3.2536083
H	0.95358721	2.47164666	-2.65483838
H	0.78632485	1.86287881	-4.3057477
H	1.74347467	0.95600417	-3.12040597
C	-0.3989393	0.78359534	-2.85072986
C	-1.65219902	1.64262838	-2.98555478
H	-2.54119505	1.08221847	-2.6820372
H	-1.78834589	1.96629846	-4.02274362
H	-1.57746699	2.53641278	-2.36117446
C	-0.52638601	-0.53760219	-3.63699346
H	-1.44321267	-0.60385568	-4.22759114
H	0.33189657	-0.7304962	-4.28665182
C	-0.3886096	-0.98677169	-1.44084946
C	3.29372059	0.63657681	2.31440557
H	3.15758871	1.70162334	2.119417
H	4.3298834	0.48817369	2.63639006
H	2.63465731	0.35726849	3.14056202
C	2.99838852	-0.20076207	1.07923771
C	3.82464103	0.26684225	-0.1171201
H	3.67182603	-0.39571588	-0.97414729
H	4.89288923	0.27347111	0.12424092
H	3.53359022	1.27579295	-0.41912891
C	3.21251761	-1.69851982	1.35613985
H	4.10437846	-2.1141078	0.88339461
H	3.23365529	-1.92789256	2.42703577
C	1.15903002	-1.38021962	0.53258588
C	-0.5199904	-3.42183763	-0.06233851
C	-0.89046018	-4.17411587	-1.18268256
H	-1.02570988	-3.68213517	-2.13863239
C	-1.08971493	-5.55165492	-1.11062255
H	-1.37601489	-6.09995098	-2.00486623
C	-0.9261568	-6.22366056	0.09284243
H	-1.08049076	-7.29785997	0.15070476
C	-0.56161804	-5.50104649	1.22480544
H	-0.43036148	-6.00941537	2.17682644
C	-0.36559822	-4.12912351	1.13957075
H	-0.08123415	-3.59226661	2.04220259
C	0.27978106	2.75611791	1.64928112
H	-0.64361375	3.06756616	2.14285206
H	1.07797371	2.63404787	2.38262792
C	0.61625132	3.5982464	0.50504999
C	-0.39609545	4.22142145	-0.26517852
H	-1.42613089	4.16138025	0.07984213
C	-0.0987544	4.95787812	-1.40259056
H	-0.90107378	5.44597744	-1.9495838
C	1.21844298	5.08938537	-1.83690527
H	1.45116925	5.67343043	-2.72183312
C	2.23141743	4.46406366	-1.1171684
H	3.26451038	4.56170777	-1.43984915
C	1.93798368	3.72643378	0.02279884
H	2.74881372	3.28943553	0.59797171
N	-1.4670704	0.19585761	1.10508587
N	-0.27456888	0.2935272	-1.46418381
N	1.56698062	-0.17029783	0.71056412
O	-0.56461344	-1.56859567	-2.63991857
O	-2.41878927	-1.78692951	1.41608229
O	2.06347758	-2.33967167	0.79187687
end

basis
 Fe library "Stuttgart RSC 1997 ECP"
 B library 6-311+g*
 C library 6-311+g*
 O library 6-311+g*
 N library 6-311+g*
 H library 6-311+g*
end

ecp
 Fe library "Stuttgart RSC 1997 ECP"
end

scf
 triplet
 direct
 maxiter 200
 thresh 1.0e-6
 tol2e 1.0e-9
 vectors output fescf_opt.movecs
end

task scf energy

dft
 direct
 grid fine
 xc pbe0
 rodft
 cgmin
 mult 3
 maxiter 200
 vectors input fescf_opt.movecs output feopt09_6311+g-star.movecs
end

driver
 maxiter 200
end

task dft optimize
================================================================================

         Total SCF energy =  -1617.290356578629

       Multipole analysis of the density wrt the origin
       ------------------------------------------------

     L   x y z        total         open         nuclear
     -   - - -        -----         ----         -------
     0   0 0 0      0.000000     -2.000000    270.000000

     1   1 0 0      0.031050     -0.179634     -0.978780
     1   0 1 0      1.225534     -4.834121    -23.991008
     1   0 0 1     -0.556085     -1.188977     -5.916963

     2   2 0 0   -153.734682     -1.522530   3440.931496
     2   1 1 0     -5.515900     -0.245448    871.873361
     2   1 0 1      0.238240     -0.067908   -194.441807
     2   0 2 0   -190.111300    -13.173475   7802.163715
     2   0 1 1     -7.786590     -2.473643   -631.367914

         Total DFT energy =    -1625.953631201730
@ Step       Energy      Delta E   Gmax     Grms     Xrms     Xmax   Walltime
@ ---- ---------------- -------- -------- -------- -------- -------- --------
@    0   -1625.95363120  0.0D+00  0.00518  0.00052  0.00000  0.00000 124601.8
         Total DFT energy =    -1625.953493468950
         Total DFT energy =    -1625.953619740483
@    1   -1625.95361974  1.1D-05  0.00079  0.00018  0.00087  0.00497 145099.3
         Total DFT energy =    -1625.953576186262
         Total DFT energy =    -1625.953624221353
@    2   -1625.95362422 -4.5D-06  0.00067  0.00014  0.00043  0.00300 158142.9
         Total DFT energy =    -1625.953616638074
         Total DFT energy =    -1625.953626615010
@    3   -1625.95362662 -2.4D-06  0.00061  0.00012  0.00036  0.00216 169410.9
         Total DFT energy =    -1625.953625249984
         Total DFT energy =  -1625.953625249984
@    4   -1625.95362525  1.4D-06  0.00071  0.00014  0.00080  0.00409 174372.3
         Total DFT energy =    -1625.953620401897
         Total DFT energy =  -1625.953620401897
@    5   -1625.95362040  4.8D-06  0.00102  0.00021  0.00129  0.00768 182577.2
         Total DFT energy =    -1625.953630677849
         Total DFT energy =    -1625.953631870451
@    6   -1625.95363187 -1.1D-05  0.00055  0.00010  0.00075  0.00407 194307.2
         Total DFT energy =    -1625.953618746244
         Total DFT energy =    -1625.953634292190
@    7   -1625.95363429 -2.4D-06  0.00040  0.00005  0.00035  0.00263 208383.3
         Total DFT energy =    -1625.953635666732
         Total DFT energy =  -1625.953635666732
@    8   -1625.95363567 -1.4D-06  0.00032  0.00005  0.00043  0.00206 213858.4
         Total DFT energy =    -1625.953637562260

                       DFT Final Molecular Orbital Analysis
                       ------------------------------------

 Vector   40  Occ=2.000000D+00  E=-1.130291D+00

 Vector  269  Occ=0.000000D+00  E= 2.802950D-01

 Vector  270  Occ=0.000000D+00  E= 2.804864D-01

 Vector  271  Occ=0.000000D+00  E= 2.816822D-01

 Vector  272  Occ=0.000000D+00  E= 2.842607D-01

 Vector  273  Occ=0.000000D+00  E= 2.850771D-01

 Vector  274  Occ=0.000000D+00  E= 2.885533D-01

 Vector  275  Occ=0.000000D+00  E= 2.896192D-01

 Vector  276  Occ=0.000000D+00  E= 2.904570D-01

 Vector  277  Occ=0.000000D+00  E= 2.919953D-01

 Vector  278  Occ=0.000000D+00  E= 2.961428D-01

 Vector  279  Occ=0.000000D+00  E= 2.971564D-01

 Vector  280  Occ=0.000000D+00  E= 3.014381D-01

 Vector  281  Occ=0.000000D+00  E= 3.034763D-01

 Vector  282  Occ=0.000000D+00  E= 3.053798D-01

 Vector  283  Occ=0.000000D+00  E= 3.087179D-01

 Vector  284  Occ=0.000000D+00  E= 3.099747D-01

 Vector  285  Occ=0.000000D+00  E= 3.122742D-01

 Vector  286  Occ=0.000000D+00  E= 3.138260D-01

 Vector  287  Occ=0.000000D+00  E= 3.160164D-01

 Vector  288  Occ=0.000000D+00  E= 3.221810D-01

 Vector  289  Occ=0.000000D+00  E= 3.227971D-01

 Vector  290  Occ=0.000000D+00  E= 3.241259D-01

 Vector  291  Occ=0.000000D+00  E= 3.254201D-01

 Vector  292  Occ=0.000000D+00  E= 3.259792D-01

 Vector  293  Occ=0.000000D+00  E= 3.302382D-01

 Vector  294  Occ=0.000000D+00  E= 3.339989D-01

 Vector  295  Occ=0.000000D+00  E= 3.353372D-01

 Vector  296  Occ=0.000000D+00  E= 3.388413D-01

 Vector  297  Occ=0.000000D+00  E= 3.404992D-01

 Vector  298  Occ=0.000000D+00  E= 3.434229D-01

 Vector  299  Occ=0.000000D+00  E= 3.448514D-01

 Vector  300  Occ=0.000000D+00  E= 3.477005D-01

 Vector  301  Occ=0.000000D+00  E= 3.483829D-01

 Vector  302  Occ=0.000000D+00  E= 3.510098D-01

 Vector  303  Occ=0.000000D+00  E= 3.537231D-01

 Vector  304  Occ=0.000000D+00  E= 3.551812D-01

 Vector  305  Occ=0.000000D+00  E= 3.569939D-01

 Vector  306  Occ=0.000000D+00  E= 3.576557D-01

 Vector  307  Occ=0.000000D+00  E= 3.606590D-01

 Vector  308  Occ=0.000000D+00  E= 3.668901D-01

 Vector  309  Occ=0.000000D+00  E= 3.681492D-01

 Vector  310  Occ=0.000000D+00  E= 3.711745D-01

 Vector  311  Occ=0.000000D+00  E= 3.752309D-01

 Vector  312  Occ=0.000000D+00  E= 3.756624D-01

 Vector  313  Occ=0.000000D+00  E= 3.811818D-01

 Vector  314  Occ=0.000000D+00  E= 3.821089D-01

 Vector  315  Occ=0.000000D+00  E= 3.865279D-01

 Vector  316  Occ=0.000000D+00  E= 3.877630D-01

 Vector  317  Occ=0.000000D+00  E= 3.891701D-01

 Vector  318  Occ=0.000000D+00  E= 3.935687D-01

 Vector  319  Occ=0.000000D+00  E= 3.996559D-01

 Vector  320  Occ=0.000000D+00  E= 4.017624D-01

 Vector  321  Occ=0.000000D+00  E= 4.039825D-01

 Vector  322  Occ=0.000000D+00  E= 4.096592D-01

 Vector  323  Occ=0.000000D+00  E= 4.118823D-01

 Vector  324  Occ=0.000000D+00  E= 4.144978D-01

 Vector  325  Occ=0.000000D+00  E= 4.177381D-01

 Vector  326  Occ=0.000000D+00  E= 4.203404D-01

 Vector  327  Occ=0.000000D+00  E= 4.243908D-01

 Vector  328  Occ=0.000000D+00  E= 4.254825D-01

 Vector  329  Occ=0.000000D+00  E= 4.312561D-01

 Vector  330  Occ=0.000000D+00  E= 4.394266D-01

 Vector  331  Occ=0.000000D+00  E= 4.413442D-01

 Vector  332  Occ=0.000000D+00  E= 4.477937D-01

 Vector  333  Occ=0.000000D+00  E= 4.486967D-01

 Vector  334  Occ=0.000000D+00  E= 4.524674D-01

 Vector  335  Occ=0.000000D+00  E= 4.558908D-01

 Vector  336  Occ=0.000000D+00  E= 4.594869D-01

 Vector  337  Occ=0.000000D+00  E= 4.660162D-01

 Vector  338  Occ=0.000000D+00  E= 4.686891D-01

 Vector  339  Occ=0.000000D+00  E= 4.716632D-01

 Vector  340  Occ=0.000000D+00  E= 4.756269D-01

 Vector  341  Occ=0.000000D+00  E= 4.789889D-01

 Vector  342  Occ=0.000000D+00  E= 4.823140D-01

 Vector  343  Occ=0.000000D+00  E= 4.831860D-01

 Vector  344  Occ=0.000000D+00  E= 4.889720D-01

 Vector  345  Occ=0.000000D+00  E= 4.899115D-01

 Vector  346  Occ=0.000000D+00  E= 4.922926D-01

 Vector  347  Occ=0.000000D+00  E= 4.995753D-01

 Vector  348  Occ=0.000000D+00  E= 5.065755D-01

         Total DFT energy =  -1625.953637562260
@    9   -1625.95363756 -1.9D-06  0.00021  0.00004  0.00049  0.00157 219320.5
@    9   -1625.95363756 -1.9D-06  0.00021  0.00004  0.00049  0.00157 219320.5

 Output coordinates in angstroms (scale by  1.889725989 to convert to a.u.)

  No.       Tag          Charge          X              Y              Z
 ---- ---------------- ---------- -------------- -------------- --------------
    1 Fe                  26.0000     0.05110503     1.26954325     0.31420186
    2 B                    5.0000    -0.30692042    -1.83587894    -0.04696777
    3 C                    6.0000    -2.02964260     0.67847633     3.44840125
    4 H                    1.0000    -1.49299807    -0.21092038     3.79163346
    5 H                    1.0000    -2.84408401     0.87850412     4.15289395
    6 H                    1.0000    -1.33580131     1.51914345     3.47469929
    7 C                    6.0000    -2.58166291     0.46182395     2.04065176
    8 C                    6.0000    -3.41624054     1.64551020     1.57952825
    9 H                    1.0000    -2.84102876     2.57300986     1.62852454
   10 H                    1.0000    -4.29914838     1.76827910     2.21517808
   11 H                    1.0000    -3.75360879     1.50556267     0.54887695
   12 C                    6.0000    -3.36010751    -0.85988934     1.95934777
   13 H                    1.0000    -3.70032856    -1.23376266     2.92620491
   14 H                    1.0000    -4.21140778    -0.80498037     1.27162874
   15 C                    6.0000    -1.42618066    -1.08279567     0.86975170
   16 C                    6.0000     0.84366837     1.55419599    -3.25232397
   17 H                    1.0000     0.95275758     2.46032263    -2.65189458
   18 H                    1.0000     0.78534387     1.85474893    -4.30392284
   19 H                    1.0000     1.74233235     0.94537261    -3.12005695
   20 C                    6.0000    -0.39982551     0.77304142    -2.84996094
   21 C                    6.0000    -1.65312823     1.63221939    -2.98406062
   22 H                    1.0000    -2.54238908     1.07161332    -2.68187944
   23 H                    1.0000    -1.78848722     1.95783386    -4.02079275
   24 H                    1.0000    -1.57869290     2.52493219    -2.35804160
   25 C                    6.0000    -0.52723966    -0.54843887    -3.63651345
   26 H                    1.0000    -1.44383696    -0.61475942    -4.22743544
   27 H                    1.0000     0.33111277    -0.74191521    -4.28586362
   28 C                    6.0000    -0.38979703    -0.99761798    -1.44036650
   29 C                    6.0000     3.29108265     0.62613106     2.31460268
   30 H                    1.0000     3.15601948     1.69097619     2.11806795
   31 H                    1.0000     4.32636941     0.47647059     2.63896593
   32 H                    1.0000     2.62987311     0.34845387     3.13947094
   33 C                    6.0000     2.99691034    -0.21107163     1.07969604
   34 C                    6.0000     3.82331705     0.25651458    -0.11643548
   35 H                    1.0000     3.66992345    -0.40591089    -0.97351548
   36 H                    1.0000     4.89157639     0.26209129     0.12484701
   37 H                    1.0000     3.53300677     1.26570143    -0.41815025
   38 C                    6.0000     3.21124138    -1.70896892     1.35635900
   39 H                    1.0000     4.10302503    -2.12470908     0.88330639
   40 H                    1.0000     3.23294888    -1.93837667     2.42728600
   41 C                    6.0000     1.15770644    -1.39049170     0.53269758
   42 C                    6.0000    -0.52144704    -3.43307817    -0.06195307
   43 C                    6.0000    -0.89140903    -4.18597681    -1.18206055
   44 H                    1.0000    -1.02650870    -3.69456047    -2.13828847
   45 C                    6.0000    -1.09107683    -5.56352019    -1.10915966
   46 H                    1.0000    -1.37668113    -6.11248626    -2.00322080
   47 C                    6.0000    -0.92740555    -6.23501232     0.09447028
   48 H                    1.0000    -1.08190147    -7.30913158     0.15291775
   49 C                    6.0000    -0.56317103    -5.51180961     1.22622517
   50 H                    1.0000    -0.43168750    -6.01987262     2.17839057
   51 C                    6.0000    -0.36672724    -4.14008343     1.14020940
   52 H                    1.0000    -0.08237146    -3.60289874     2.04261811
   53 C                    6.0000     0.27753045     2.74498559     1.65048401
   54 H                    1.0000    -0.64528694     3.05787456     2.14430668
   55 H                    1.0000     1.07560044     2.62286621     2.38396623
   56 C                    6.0000     0.61427667     3.58633118     0.50567195
   57 C                    6.0000    -0.39783966     4.20959366    -0.26465168
   58 H                    1.0000    -1.42790402     4.14970919     0.08020200
   59 C                    6.0000    -0.10013698     4.94654177    -1.40167096
   60 H                    1.0000    -0.90240820     5.43422317    -1.94904611
   61 C                    6.0000     1.21707983     5.07745078    -1.83613643
   62 H                    1.0000     1.44984423     5.66249359    -2.72039769
   63 C                    6.0000     2.22983654     4.45125026    -1.11688378
   64 H                    1.0000     3.26309919     4.54939769    -1.43897855
   65 C                    6.0000     1.93607592     3.71362796     0.02317607
   66 H                    1.0000     2.74666653     3.27536723     0.59769587
   67 N                    7.0000    -1.46882223     0.18491799     1.10554916
   68 N                    7.0000    -0.27487313     0.28261977    -1.46370132
   69 N                    7.0000     1.56540849    -0.18058687     0.71102917
   70 O                    8.0000    -0.56605311    -1.57922266    -2.63942353
   71 O                    8.0000    -2.42034506    -1.79779452     1.41851656
   72 O                    8.0000     2.06235490    -2.34995580     0.79199765

 Total times  cpu:   108892.1s     wall:   219320.7s
