============================== echo of input deck ==============================
echo

start feopt36_6311+g-star

geometry units angstroms noautosym noautoz
Fe	0.03211371	1.29248448	0.33254913
B	-0.27933169	-1.81024292	-0.12784118
C	-1.9592009	0.52864372	3.49100047
H	-1.41603506	-0.37693759	3.77678434
H	-2.7613615	0.68912605	4.21913308
H	-1.26588946	1.36812534	3.54935675
C	-2.5353644	0.38582931	2.0836579
C	-3.37666089	1.59167147	1.69892391
H	-2.79857119	2.51435447	1.78419638
H	-4.24700111	1.68356141	2.35692308
H	-3.73394077	1.50547257	0.66908668
C	-3.31543093	-0.92904935	1.94871114
H	-3.65475899	-1.34352545	2.89913472
H	-4.16719226	-0.84319732	1.26479068
C	-1.39208132	-1.1053572	0.83412692
C	0.75851841	1.59146682	-3.30474301
H	0.98213038	2.45837992	-2.67958
H	0.64523324	1.93940693	-4.33708611
H	1.6136569	0.91070216	-3.26496648
C	-0.51027746	0.89004837	-2.83675069
C	-1.70461699	1.83628693	-2.87348011
H	-2.60695095	1.33481666	-2.51198437
H	-1.89179363	2.18275729	-3.89536312
H	-1.52356002	2.71501414	-2.24915655
C	-0.77783868	-0.39911525	-3.64146958
H	-1.78346037	-0.43816049	-4.06937931
H	-0.04598319	-0.56951527	-4.43476548
C	-0.4224995	-0.92410122	-1.48621398
C	3.32330075	0.62054218	2.27302453
H	3.2260836	1.69035586	2.07946016
H	4.34821283	0.43879822	2.61389711
H	2.64137329	0.36106411	3.08684822
C	3.02338732	-0.20646648	1.03240577
C	3.86193861	0.25068007	-0.15950274
H	3.707058	-0.41241764	-1.01574004
H	4.92848797	0.24474492	0.08906896
H	3.58511704	1.26120931	-0.46780852
C	3.22275391	-1.70629532	1.30188431
H	4.12517762	-2.12212607	0.84974295
H	3.21388218	-1.94463404	2.37141143
C	1.18497712	-1.36689911	0.45214968
C	-0.45557498	-3.4113561	-0.19109936
C	-0.70544126	-4.15506955	-1.34980477
H	-0.79432805	-3.64892404	-2.30367733
C	-0.84590903	-5.54157919	-1.3175427
H	-1.03994197	-6.0827764	-2.24047596
C	-0.74010873	-6.23160761	-0.1179199
H	-0.84857684	-7.31258244	-0.09094037
C	-0.49301971	-5.51816401	1.05111434
H	-0.40715014	-6.04068867	2.00061151
C	-0.35539586	-4.13767115	1.00548357
H	-0.16151097	-3.60858347	1.93627178
C	0.25153806	2.70708896	1.73544139
H	-0.64718391	3.00651567	2.27748137
H	1.07913365	2.53913965	2.42549939
C	0.55240622	3.57000271	0.60179334
C	-0.45601267	4.32049048	-0.05492865
H	-1.45595488	4.3381076	0.37247182
C	-0.18245746	5.07341499	-1.18419216
H	-0.97546775	5.65890838	-1.6420434
C	1.10297593	5.10024368	-1.72798948
H	1.3162082	5.70092807	-2.6066522
C	2.10437204	4.35053593	-1.12564096
H	3.11198607	4.36394095	-1.53271506
C	1.83441641	3.58899609	0.00799743
H	2.64392822	3.05925502	0.49936008
N	-1.43740381	0.1525916	1.11794234
N	-0.32582102	0.35815566	-1.47200682
N	1.59227459	-0.16128645	0.65723827
O	-0.66016079	-1.46803201	-2.69222076
O	-2.37723823	-1.8441324	1.36720514
O	2.08625611	-2.3336282	0.70049903
end

basis
 Fe library "Stuttgart RSC 1997 ECP"
 B library 6-311+g*
 C library 6-311+g*
 O library 6-311+g*
 N library 6-311+g*
 H library 6-311+g*
end

ecp
 Fe library "Stuttgart RSC 1997 ECP"
end

scf
 triplet
 direct
 maxiter 200
 thresh 1.0e-6
 tol2e 1.0e-9
 vectors output fescf_opt.movecs
end

task scf energy

dft
 direct
 grid fine
 xc pbe0
 rodft
 cgmin
 mult 3
 maxiter 200
 vectors input fescf_opt.movecs output feopt36_6311+g-star.movecs
end

driver
 maxiter 200
end

task dft optimize
================================================================================

         Total SCF energy =  -1617.288021587555

       Multipole analysis of the density wrt the origin
       ------------------------------------------------

     L   x y z        total         open         nuclear
     -   - - -        -----         ----         -------
     0   0 0 0     -0.000000     -2.000000    270.000000

     1   1 0 0     -0.074423     -0.104879     -0.638600
     1   0 1 0      1.296970     -4.870077    -24.175164
     1   0 0 1     -0.486546     -1.317301     -6.568336

     2   2 0 0   -154.074368     -1.501920   3380.156780
     2   1 1 0     -5.945508     -0.007278    701.240127
     2   1 0 1     -0.166995     -0.058275   -149.794000
     2   0 2 0   -189.030482    -13.359178   7806.436511
     2   0 1 1     -8.746148     -2.845207   -492.099299

         Total DFT energy =    -1625.953746220307
@ Step       Energy      Delta E   Gmax     Grms     Xrms     Xmax   Walltime
@ ---- ---------------- -------- -------- -------- -------- -------- --------
@    0   -1625.95374622  0.0D+00  0.00426  0.00050  0.00000  0.00000  33219.4
         Total DFT energy =    -1625.953645461553
         Total DFT energy =    -1625.953736675835
@    1   -1625.95373668  9.5D-06  0.00083  0.00017  0.00089  0.00472  38350.8
         Total DFT energy =    -1625.953694708573
         Total DFT energy =    -1625.953739999754
@    2   -1625.95374000 -3.3D-06  0.00083  0.00014  0.00036  0.00270  41745.5
         Total DFT energy =    -1625.953739143574
         Total DFT energy =  -1625.953739143574
@    3   -1625.95373914  8.6D-07  0.00088  0.00014  0.00089  0.00423  43828.1
         Total DFT energy =    -1625.953744594694
         Total DFT energy =    -1625.953745202917
@    4   -1625.95374520 -6.1D-06  0.00051  0.00009  0.00058  0.00360  46101.6
         Total DFT energy =    -1625.953732763477
         Total DFT energy =    -1625.953746790219
@    5   -1625.95374679 -1.6D-06  0.00047  0.00007  0.00029  0.00193  48935.4
         Total DFT energy =    -1625.953745386417
         Total DFT energy =  -1625.953745386417
@    6   -1625.95374539  1.4D-06  0.00036  0.00008  0.00087  0.00589  50342.5
         Total DFT energy =    -1625.953749226453
         Total DFT energy =  -1625.953749226453
@    7   -1625.95374923 -3.8D-06  0.00025  0.00005  0.00064  0.00435  51748.6
         Total DFT energy =    -1625.953747568571
         Total DFT energy =  -1625.953747568571
@    8   -1625.95374757  1.7D-06  0.00035  0.00008  0.00061  0.00411  53146.9
         Total DFT energy =    -1625.953750711767
         Total DFT energy =  -1625.953750711767
@    9   -1625.95375071 -3.1D-06  0.00014  0.00003  0.00047  0.00350  54549.7
         Total DFT energy =    -1625.953751431099

                       DFT Final Molecular Orbital Analysis
                       ------------------------------------

 Vector   40  Occ=2.000000D+00  E=-1.130453D+00

 Vector  269  Occ=0.000000D+00  E= 2.788507D-01

 Vector  270  Occ=0.000000D+00  E= 2.809518D-01

 Vector  271  Occ=0.000000D+00  E= 2.832252D-01

 Vector  272  Occ=0.000000D+00  E= 2.841617D-01

 Vector  273  Occ=0.000000D+00  E= 2.862985D-01

 Vector  274  Occ=0.000000D+00  E= 2.883795D-01

 Vector  275  Occ=0.000000D+00  E= 2.902992D-01

 Vector  276  Occ=0.000000D+00  E= 2.914068D-01

 Vector  277  Occ=0.000000D+00  E= 2.929082D-01

 Vector  278  Occ=0.000000D+00  E= 2.946586D-01

 Vector  279  Occ=0.000000D+00  E= 2.968415D-01

 Vector  280  Occ=0.000000D+00  E= 3.026059D-01

 Vector  281  Occ=0.000000D+00  E= 3.035097D-01

 Vector  282  Occ=0.000000D+00  E= 3.052474D-01

 Vector  283  Occ=0.000000D+00  E= 3.082070D-01

 Vector  284  Occ=0.000000D+00  E= 3.097475D-01

 Vector  285  Occ=0.000000D+00  E= 3.127992D-01

 Vector  286  Occ=0.000000D+00  E= 3.148964D-01

 Vector  287  Occ=0.000000D+00  E= 3.165877D-01

 Vector  288  Occ=0.000000D+00  E= 3.220326D-01

 Vector  289  Occ=0.000000D+00  E= 3.236786D-01

 Vector  290  Occ=0.000000D+00  E= 3.257379D-01

 Vector  291  Occ=0.000000D+00  E= 3.276802D-01

 Vector  292  Occ=0.000000D+00  E= 3.283532D-01

 Vector  293  Occ=0.000000D+00  E= 3.314331D-01

 Vector  294  Occ=0.000000D+00  E= 3.343862D-01

 Vector  295  Occ=0.000000D+00  E= 3.365645D-01

 Vector  296  Occ=0.000000D+00  E= 3.381600D-01

 Vector  297  Occ=0.000000D+00  E= 3.402947D-01

 Vector  298  Occ=0.000000D+00  E= 3.434512D-01

 Vector  299  Occ=0.000000D+00  E= 3.446916D-01

 Vector  300  Occ=0.000000D+00  E= 3.469765D-01

 Vector  301  Occ=0.000000D+00  E= 3.476685D-01

 Vector  302  Occ=0.000000D+00  E= 3.501982D-01

 Vector  303  Occ=0.000000D+00  E= 3.515056D-01

 Vector  304  Occ=0.000000D+00  E= 3.553800D-01

 Vector  305  Occ=0.000000D+00  E= 3.583593D-01

 Vector  306  Occ=0.000000D+00  E= 3.600228D-01

 Vector  307  Occ=0.000000D+00  E= 3.612133D-01

 Vector  308  Occ=0.000000D+00  E= 3.662502D-01

 Vector  309  Occ=0.000000D+00  E= 3.693079D-01

 Vector  310  Occ=0.000000D+00  E= 3.694458D-01

 Vector  311  Occ=0.000000D+00  E= 3.766736D-01

 Vector  312  Occ=0.000000D+00  E= 3.791881D-01

 Vector  313  Occ=0.000000D+00  E= 3.802293D-01

 Vector  314  Occ=0.000000D+00  E= 3.831077D-01

 Vector  315  Occ=0.000000D+00  E= 3.864755D-01

 Vector  316  Occ=0.000000D+00  E= 3.890408D-01

 Vector  317  Occ=0.000000D+00  E= 3.893673D-01

 Vector  318  Occ=0.000000D+00  E= 3.939443D-01

 Vector  319  Occ=0.000000D+00  E= 3.993318D-01

 Vector  320  Occ=0.000000D+00  E= 4.031134D-01

 Vector  321  Occ=0.000000D+00  E= 4.054831D-01

 Vector  322  Occ=0.000000D+00  E= 4.067285D-01

 Vector  323  Occ=0.000000D+00  E= 4.097067D-01

 Vector  324  Occ=0.000000D+00  E= 4.134697D-01

 Vector  325  Occ=0.000000D+00  E= 4.179969D-01

 Vector  326  Occ=0.000000D+00  E= 4.187312D-01

 Vector  327  Occ=0.000000D+00  E= 4.226614D-01

 Vector  328  Occ=0.000000D+00  E= 4.271790D-01

 Vector  329  Occ=0.000000D+00  E= 4.294944D-01

 Vector  330  Occ=0.000000D+00  E= 4.415392D-01

 Vector  331  Occ=0.000000D+00  E= 4.435447D-01

 Vector  332  Occ=0.000000D+00  E= 4.487850D-01

 Vector  333  Occ=0.000000D+00  E= 4.509951D-01

 Vector  334  Occ=0.000000D+00  E= 4.524858D-01

 Vector  335  Occ=0.000000D+00  E= 4.569895D-01

 Vector  336  Occ=0.000000D+00  E= 4.632647D-01

 Vector  337  Occ=0.000000D+00  E= 4.660166D-01

 Vector  338  Occ=0.000000D+00  E= 4.682109D-01

 Vector  339  Occ=0.000000D+00  E= 4.719776D-01

 Vector  340  Occ=0.000000D+00  E= 4.749859D-01

 Vector  341  Occ=0.000000D+00  E= 4.800715D-01

 Vector  342  Occ=0.000000D+00  E= 4.821345D-01

 Vector  343  Occ=0.000000D+00  E= 4.842109D-01

 Vector  344  Occ=0.000000D+00  E= 4.876320D-01

 Vector  345  Occ=0.000000D+00  E= 4.915292D-01

 Vector  346  Occ=0.000000D+00  E= 4.925101D-01

 Vector  347  Occ=0.000000D+00  E= 4.982086D-01

 Vector  348  Occ=0.000000D+00  E= 5.030558D-01

         Total DFT energy =  -1625.953751431099
@   10   -1625.95375143 -7.2D-07  0.00019  0.00003  0.00033  0.00101  55951.0
@   10   -1625.95375143 -7.2D-07  0.00019  0.00003  0.00033  0.00101  55951.0

 Output coordinates in angstroms (scale by  1.889725989 to convert to a.u.)

  No.       Tag          Charge          X              Y              Z
 ---- ---------------- ---------- -------------- -------------- --------------
    1 Fe                  26.0000     0.03447416     1.27846525     0.34835340
    2 B                    5.0000    -0.27782685    -1.82349954    -0.11247769
    3 C                    6.0000    -1.95664788     0.51618463     3.50560204
    4 H                    1.0000    -1.41330162    -0.38943062     3.79116255
    5 H                    1.0000    -2.75824878     0.67709596     4.23423371
    6 H                    1.0000    -1.26279242     1.35534823     3.56317923
    7 C                    6.0000    -2.53290260     0.37294708     2.09816100
    8 C                    6.0000    -3.37429078     1.57832642     1.71230214
    9 H                    1.0000    -2.79727187     2.50173303     1.79775727
   10 H                    1.0000    -4.24523081     1.66855439     2.36952021
   11 H                    1.0000    -3.73073845     1.49191315     0.68220621
   12 C                    6.0000    -3.31397474    -0.94195868     1.96338612
   13 H                    1.0000    -3.65318341    -1.35594162     2.91416399
   14 H                    1.0000    -4.16618217    -0.85643404     1.27992174
   15 C                    6.0000    -1.39021660    -1.11894200     0.84942323
   16 C                    6.0000     0.76101715     1.57828929    -3.28841851
   17 H                    1.0000     0.98449757     2.44416138    -2.66180893
   18 H                    1.0000     0.64861702     1.92805054    -4.32022157
   19 H                    1.0000     1.61597340     0.89724553    -3.24886628
   20 C                    6.0000    -0.50833445     0.87708814    -2.82131379
   21 C                    6.0000    -1.70196313     1.82454245    -2.85895917
   22 H                    1.0000    -2.60511181     1.32461370    -2.49738076
   23 H                    1.0000    -1.88823386     2.17035678    -3.88120242
   24 H                    1.0000    -1.52068819     2.70381059    -2.23549170
   25 C                    6.0000    -0.77720517    -0.41225856    -3.62572109
   26 H                    1.0000    -1.78334972    -0.45073460    -4.05214819
   27 H                    1.0000    -0.04649307    -0.58394553    -4.41984101
   28 C                    6.0000    -0.42126841    -0.93724753    -1.47071796
   29 C                    6.0000     3.32567226     0.60777072     2.28771667
   30 H                    1.0000     3.22776758     1.67764392     2.09473119
   31 H                    1.0000     4.35120913     0.42646654     2.62661022
   32 H                    1.0000     2.64506082     0.34801706     3.10255924
   33 C                    6.0000     3.02474122    -0.21928038     1.04731712
   34 C                    6.0000     3.86332807     0.23787168    -0.14491435
   35 H                    1.0000     3.70818218    -0.42527009    -1.00102351
   36 H                    1.0000     4.92990658     0.23236612     0.10368526
   37 H                    1.0000     3.58705518     1.24841497    -0.45375689
   38 C                    6.0000     3.22401616    -1.71953707     1.31690028
   39 H                    1.0000     4.12618731    -2.13591857     0.86483769
   40 H                    1.0000     3.21476638    -1.95787405     2.38638028
   41 C                    6.0000     1.18621311    -1.37989453     0.46768120
   42 C                    6.0000    -0.45385009    -3.42469315    -0.17598681
   43 C                    6.0000    -0.70326181    -4.16841473    -1.33474639
   44 H                    1.0000    -0.79149367    -3.66231083    -2.28869673
   45 C                    6.0000    -0.84395229    -5.55500576    -1.30252258
   46 H                    1.0000    -1.03719482    -6.09625566    -2.22557349
   47 C                    6.0000    -0.73868458    -6.24511946    -0.10297186
   48 H                    1.0000    -0.84728162    -7.32610555    -0.07607917
   49 C                    6.0000    -0.49166996    -5.53171277     1.06611377
   50 H                    1.0000    -0.40581038    -6.05433398     2.01560299
   51 C                    6.0000    -0.35391820    -4.15118252     1.02053357
   52 H                    1.0000    -0.16019745    -3.62215243     1.95139966
   53 C                    6.0000     0.25243934     2.69375410     1.75127715
   54 H                    1.0000    -0.64595325     2.99437367     2.29333870
   55 H                    1.0000     1.08020020     2.52540938     2.44118662
   56 C                    6.0000     0.55355227     3.55603448     0.61713101
   57 C                    6.0000    -0.45499802     4.30646792    -0.03953770
   58 H                    1.0000    -1.45479463     4.32429339     0.38824903
   59 C                    6.0000    -0.18167704     5.05912014    -1.16896473
   60 H                    1.0000    -0.97474061     5.64477931    -1.62642022
   61 C                    6.0000     1.10369856     5.08594619    -1.71314048
   62 H                    1.0000     1.31717206     5.68688622    -2.59159262
   63 C                    6.0000     2.10502751     4.33630324    -1.11088952
   64 H                    1.0000     3.11278003     4.34995909    -1.51754954
   65 C                    6.0000     1.83524271     3.57454347     0.02258797
   66 H                    1.0000     2.64533946     3.04595949     0.51413867
   67 N                    7.0000    -1.43510720     0.13898109     1.13313630
   68 N                    7.0000    -0.32452021     0.34502197    -1.45645607
   69 N                    7.0000     1.59384104    -0.17434093     0.67277907
   70 O                    8.0000    -0.65950762    -1.48125170    -2.67648673
   71 O                    8.0000    -2.37591697    -1.85734114     1.38217865
   72 O                    8.0000     2.08737614    -2.34665238     0.71575299

 Total times  cpu:    54732.8s     wall:    55951.1s
