============================== echo of input deck ==============================
echo

start feopt38-03_6311+g-star

geometry units angstroms noautosym noautoz
Fe	0.05574423	1.27646088	0.35913074
B	-0.19057125	-1.8372858	-0.04812507
C	-1.13146104	0.40466217	3.88288238
H	-0.50165206	-0.47743462	4.03180367
H	-1.75713636	0.53192733	4.77252217
H	-0.47666605	1.27177934	3.79246639
C	-1.9982706	0.23814372	2.63592758
C	-2.95680737	1.40441286	2.46125386
H	-2.41787089	2.35397184	2.43499066
H	-3.66672286	1.44822283	3.2936126
H	-3.52525782	1.30821634	1.53220553
C	-2.7301868	-1.11119252	2.66083576
H	-2.83402019	-1.5413941	3.65812825
H	-3.71435438	-1.06555566	2.18102763
C	-1.09187016	-1.19649121	1.14981641
C	-0.13248249	1.60063761	-3.35513248
H	0.19804213	2.4777232	-2.79558746
H	-0.51351821	1.94153013	-4.32392204
H	0.73674369	0.96157305	-3.53463822
C	-1.21049573	0.84115152	-2.59126104
C	-2.41593913	1.73266454	-2.31722424
H	-3.17489102	1.19345714	-1.74297767
H	-2.86992098	2.06590661	-3.25635509
H	-2.1218735	2.6210044	-1.75235852
C	-1.61352239	-0.46173526	-3.3140428
H	-2.69051914	-0.54656596	-3.48313679
H	-1.09174768	-0.60362856	-4.26375486
C	-0.70424996	-0.96322273	-1.32215741
C	3.74896171	0.80307661	1.45303031
H	3.55543113	1.86535165	1.29242769
H	4.83377809	0.67506073	1.53221924
H	3.30044791	0.51748499	2.40788175
C	3.19997145	-0.05044794	0.32067374
C	3.70453501	0.43413116	-1.03737483
H	3.38354693	-0.24604752	-1.83178607
H	4.79831134	0.48584857	-1.05095495
H	3.3101788	1.42560257	-1.27086392
C	3.53323555	-1.53586044	0.53416676
H	4.32634006	-1.9112263	-0.11531774
H	3.78385978	-1.76288828	1.57638663
C	1.33952024	-1.30780134	0.18351632
C	-0.26108784	-3.44606565	-0.1053263
C	0.00866068	-4.17141521	1.06496015
H	0.22216887	-3.63642877	1.98768349
C	0.01422055	-5.5594322	1.09415908
H	0.22740832	-6.08126087	2.02377893
C	-0.25278745	-6.28103901	-0.06508603
H	-0.24997004	-7.36762307	-0.04992575
C	-0.52053818	-5.59192264	-1.23998481
H	-0.72926116	-6.13983966	-2.15568427
C	-0.52268427	-4.19824998	-1.25607274
H	-0.73766023	-3.6925962	-2.19020015
C	0.52521402	2.69391809	1.69830681
H	-0.22358963	2.93750302	2.45385939
H	1.50833851	2.57161845	2.15379791
C	0.48077609	3.57190011	0.5388419
C	-0.69610914	4.27678301	0.17794127
H	-1.54907244	4.24821648	0.85199676
C	-0.75930159	5.04337996	-0.97250911
H	-1.66854669	5.59360047	-1.19993474
C	0.33748449	5.13034451	-1.83252433
H	0.2879891	5.74441504	-2.7262968
C	1.49243441	4.42580479	-1.52273091
H	2.35815037	4.48826352	-2.17668664
C	1.56128348	3.64859451	-0.36894589
H	2.49378547	3.1574639	-0.11142193
N	-1.13010959	0.05753375	1.45105193
N	-0.66319011	0.32197744	-1.32212665
N	1.72044239	-0.08150202	0.29684614
O	-1.22142591	-1.52142974	-2.42997856
O	-1.90184319	-1.98097027	1.87799808
O	2.32194358	-2.22513595	0.21158804
end

basis
 Fe library "Stuttgart RSC 1997 ECP"
 B library 6-311+g*
 C library 6-311+g*
 O library 6-311+g*
 N library 6-311+g*
 H library 6-311+g*
end

ecp
 Fe library "Stuttgart RSC 1997 ECP"
end

scf
 triplet
 direct
 maxiter 200
 thresh 1.0e-6
 tol2e 1.0e-9
 vectors output fescf_opt.movecs
end

task scf energy

dft
 direct
 grid fine
 xc pbe0
 rodft
 cgmin
 mult 3
 maxiter 200
 vectors input fescf_opt.movecs output feopt38-03_6311+g-star.movecs
end

driver
 maxiter 200
end

task dft optimize
================================================================================

         Total SCF energy =  -1617.287212846856

       Multipole analysis of the density wrt the origin
       ------------------------------------------------

     L   x y z        total         open         nuclear
     -   - - -        -----         ----         -------
     0   0 0 0     -0.000000     -2.000000    270.000000

     1   1 0 0     -0.273606     -0.159610     -0.913224
     1   0 1 0      1.298085     -4.867696    -24.166902
     1   0 0 1     -0.436727     -1.330477     -6.608773

     2   2 0 0   -153.936938     -1.518568   3237.355360
     2   1 1 0     -6.208100     -0.062117    219.996573
     2   1 0 1     -0.887093     -0.000637   -167.122232
     2   0 2 0   -189.399828    -13.324812   7860.159680
     2   0 1 1     -7.375720     -2.940035   -545.830447

         Total DFT energy =    -1625.953823498662
@ Step       Energy      Delta E   Gmax     Grms     Xrms     Xmax   Walltime
@ ---- ---------------- -------- -------- -------- -------- -------- --------
@    0   -1625.95382350  0.0D+00  0.00309  0.00038  0.00000  0.00000  32479.3
         Total DFT energy =    -1625.953760692313
         Total DFT energy =    -1625.953817717352
@    1   -1625.95381772  5.8D-06  0.00072  0.00014  0.00063  0.00375  36466.5
         Total DFT energy =    -1625.953806041234
         Total DFT energy =    -1625.953820222732
@    2   -1625.95382022 -2.5D-06  0.00060  0.00012  0.00030  0.00214  40132.9
         Total DFT energy =    -1625.953809986900
         Total DFT energy =    -1625.953822332631
@    3   -1625.95382233 -2.1D-06  0.00120  0.00016  0.00039  0.00289  43076.2
         Total DFT energy =    -1625.953803324731
         Total DFT energy =    -1625.953822239755
@    4   -1625.95382224  9.3D-08  0.00120  0.00015  0.00027  0.00185  45881.5
         Total DFT energy =    -1625.953818397857
         Total DFT energy =  -1625.953818397857
@    5   -1625.95381840  3.8D-06  0.00137  0.00020  0.00097  0.00389  47277.1
         Total DFT energy =    -1625.953819446837
         Total DFT energy =  -1625.953819446837
@    6   -1625.95381945 -1.0D-06  0.00101  0.00016  0.00119  0.00813  49352.4
         Total DFT energy =    -1625.953826562476
         Total DFT energy =    -1625.953827280496
@    7   -1625.95382728 -7.8D-06  0.00050  0.00008  0.00062  0.00280  51518.7
         Total DFT energy =    -1625.953824779466
         Total DFT energy =  -1625.953824779466
@    8   -1625.95382478  2.5D-06  0.00069  0.00011  0.00080  0.00443  52787.2
         Total DFT energy =    -1625.953830307229
         Total DFT energy =  -1625.953830307229
@    9   -1625.95383031 -5.5D-06  0.00059  0.00008  0.00057  0.00322  54177.4
         Total DFT energy =    -1625.953830050165
         Total DFT energy =  -1625.953830050165
@   10   -1625.95383005  2.6D-07  0.00045  0.00007  0.00058  0.00299  55574.0
         Total DFT energy =    -1625.953831143947

                       DFT Final Molecular Orbital Analysis
                       ------------------------------------

 Vector   40  Occ=2.000000D+00  E=-1.130614D+00

 Vector  269  Occ=0.000000D+00  E= 2.774874D-01

 Vector  270  Occ=0.000000D+00  E= 2.801279D-01

 Vector  271  Occ=0.000000D+00  E= 2.823611D-01

 Vector  272  Occ=0.000000D+00  E= 2.847672D-01

 Vector  273  Occ=0.000000D+00  E= 2.865858D-01

 Vector  274  Occ=0.000000D+00  E= 2.878197D-01

 Vector  275  Occ=0.000000D+00  E= 2.909085D-01

 Vector  276  Occ=0.000000D+00  E= 2.925453D-01

 Vector  277  Occ=0.000000D+00  E= 2.931937D-01

 Vector  278  Occ=0.000000D+00  E= 2.957837D-01

 Vector  279  Occ=0.000000D+00  E= 2.974492D-01

 Vector  280  Occ=0.000000D+00  E= 3.022978D-01

 Vector  281  Occ=0.000000D+00  E= 3.038675D-01

 Vector  282  Occ=0.000000D+00  E= 3.067298D-01

 Vector  283  Occ=0.000000D+00  E= 3.091256D-01

 Vector  284  Occ=0.000000D+00  E= 3.100371D-01

 Vector  285  Occ=0.000000D+00  E= 3.127023D-01

 Vector  286  Occ=0.000000D+00  E= 3.157430D-01

 Vector  287  Occ=0.000000D+00  E= 3.172428D-01

 Vector  288  Occ=0.000000D+00  E= 3.208543D-01

 Vector  289  Occ=0.000000D+00  E= 3.243776D-01

 Vector  290  Occ=0.000000D+00  E= 3.254982D-01

 Vector  291  Occ=0.000000D+00  E= 3.275765D-01

 Vector  292  Occ=0.000000D+00  E= 3.289436D-01

 Vector  293  Occ=0.000000D+00  E= 3.306438D-01

 Vector  294  Occ=0.000000D+00  E= 3.336558D-01

 Vector  295  Occ=0.000000D+00  E= 3.366027D-01

 Vector  296  Occ=0.000000D+00  E= 3.394292D-01

 Vector  297  Occ=0.000000D+00  E= 3.401231D-01

 Vector  298  Occ=0.000000D+00  E= 3.442761D-01

 Vector  299  Occ=0.000000D+00  E= 3.445407D-01

 Vector  300  Occ=0.000000D+00  E= 3.470775D-01

 Vector  301  Occ=0.000000D+00  E= 3.477709D-01

 Vector  302  Occ=0.000000D+00  E= 3.515284D-01

 Vector  303  Occ=0.000000D+00  E= 3.518151D-01

 Vector  304  Occ=0.000000D+00  E= 3.552367D-01

 Vector  305  Occ=0.000000D+00  E= 3.577767D-01

 Vector  306  Occ=0.000000D+00  E= 3.607557D-01

 Vector  307  Occ=0.000000D+00  E= 3.612843D-01

 Vector  308  Occ=0.000000D+00  E= 3.654527D-01

 Vector  309  Occ=0.000000D+00  E= 3.692600D-01

 Vector  310  Occ=0.000000D+00  E= 3.714655D-01

 Vector  311  Occ=0.000000D+00  E= 3.764864D-01

 Vector  312  Occ=0.000000D+00  E= 3.786258D-01

 Vector  313  Occ=0.000000D+00  E= 3.804272D-01

 Vector  314  Occ=0.000000D+00  E= 3.834128D-01

 Vector  315  Occ=0.000000D+00  E= 3.862738D-01

 Vector  316  Occ=0.000000D+00  E= 3.886599D-01

 Vector  317  Occ=0.000000D+00  E= 3.906059D-01

 Vector  318  Occ=0.000000D+00  E= 3.937973D-01

 Vector  319  Occ=0.000000D+00  E= 3.987565D-01

 Vector  320  Occ=0.000000D+00  E= 4.013672D-01

 Vector  321  Occ=0.000000D+00  E= 4.052567D-01

 Vector  322  Occ=0.000000D+00  E= 4.083917D-01

 Vector  323  Occ=0.000000D+00  E= 4.096431D-01

 Vector  324  Occ=0.000000D+00  E= 4.126833D-01

 Vector  325  Occ=0.000000D+00  E= 4.154640D-01

 Vector  326  Occ=0.000000D+00  E= 4.176725D-01

 Vector  327  Occ=0.000000D+00  E= 4.210340D-01

 Vector  328  Occ=0.000000D+00  E= 4.281488D-01

 Vector  329  Occ=0.000000D+00  E= 4.324957D-01

 Vector  330  Occ=0.000000D+00  E= 4.415563D-01

 Vector  331  Occ=0.000000D+00  E= 4.445923D-01

 Vector  332  Occ=0.000000D+00  E= 4.480203D-01

 Vector  333  Occ=0.000000D+00  E= 4.520175D-01

 Vector  334  Occ=0.000000D+00  E= 4.558030D-01

 Vector  335  Occ=0.000000D+00  E= 4.578958D-01

 Vector  336  Occ=0.000000D+00  E= 4.643355D-01

 Vector  337  Occ=0.000000D+00  E= 4.648079D-01

 Vector  338  Occ=0.000000D+00  E= 4.673082D-01

 Vector  339  Occ=0.000000D+00  E= 4.721799D-01

 Vector  340  Occ=0.000000D+00  E= 4.744300D-01

 Vector  341  Occ=0.000000D+00  E= 4.788534D-01

 Vector  342  Occ=0.000000D+00  E= 4.826129D-01

 Vector  343  Occ=0.000000D+00  E= 4.851616D-01

 Vector  344  Occ=0.000000D+00  E= 4.859560D-01

 Vector  345  Occ=0.000000D+00  E= 4.913750D-01

 Vector  346  Occ=0.000000D+00  E= 4.938042D-01

 Vector  347  Occ=0.000000D+00  E= 4.966591D-01

 Vector  348  Occ=0.000000D+00  E= 5.051642D-01

         Total DFT energy =  -1625.953831143947
@   11   -1625.95383114 -1.1D-06  0.00043  0.00007  0.00042  0.00164  56968.8
@   11   -1625.95383114 -1.1D-06  0.00043  0.00007  0.00042  0.00164  56968.8

 Output coordinates in angstroms (scale by  1.889725989 to convert to a.u.)

  No.       Tag          Charge          X              Y              Z
 ---- ---------------- ---------- -------------- -------------- --------------
    1 Fe                  26.0000     0.04761129     1.28120155     0.35011870
    2 B                    5.0000    -0.19752552    -1.83468274    -0.05742368
    3 C                    6.0000    -1.13888576     0.40754827     3.87424098
    4 H                    1.0000    -0.50880868    -0.47427159     4.02382983
    5 H                    1.0000    -1.76540751     0.53447365     4.76339682
    6 H                    1.0000    -0.48443101     1.27501333     3.78472458
    7 C                    6.0000    -2.00506674     0.24094040     2.62710033
    8 C                    6.0000    -2.96361679     1.40696244     2.45104254
    9 H                    1.0000    -2.42477555     2.35647919     2.42483466
   10 H                    1.0000    -3.67485902     1.45155409     3.28228494
   11 H                    1.0000    -3.53050836     1.30903568     1.52124730
   12 C                    6.0000    -2.73725099    -1.10778549     2.65159031
   13 H                    1.0000    -2.84045051    -1.53868917     3.64863909
   14 H                    1.0000    -3.72160089    -1.06029560     2.17251137
   15 C                    6.0000    -1.09916771    -1.19393813     1.14001899
   16 C                    6.0000    -0.13995336     1.60189376    -3.36565890
   17 H                    1.0000     0.19213562     2.47952963    -2.80756051
   18 H                    1.0000    -0.52239329     1.94180070    -4.33407177
   19 H                    1.0000     0.72845401     0.96161613    -3.54544859
   20 C                    6.0000    -1.21772265     0.84418119    -2.60065786
   21 C                    6.0000    -2.42323068     1.73593693    -2.32723644
   22 H                    1.0000    -3.18278649     1.19628319    -1.75433394
   23 H                    1.0000    -2.87675549     2.07051265    -3.26624116
   24 H                    1.0000    -2.12954886     2.62410958    -1.76194907
   25 C                    6.0000    -1.62145810    -0.45891060    -3.32242839
   26 H                    1.0000    -2.69877920    -0.54263671    -3.48901186
   27 H                    1.0000    -1.10161719    -0.60175320    -4.27311556
   28 C                    6.0000    -0.71098097    -0.95959678    -1.33102320
   29 C                    6.0000     3.74094135     0.80652302     1.44342599
   30 H                    1.0000     3.54646608     1.86838996     1.28122456
   31 H                    1.0000     4.82577388     0.67946011     1.52412240
   32 H                    1.0000     3.29157276     0.52206908     2.39825700
   33 C                    6.0000     3.19315044    -0.04833244     0.31124306
   34 C                    6.0000     3.69813134     0.43572755    -1.04695523
   35 H                    1.0000     3.37685728    -0.24450257    -1.84122837
   36 H                    1.0000     4.79196587     0.48718442    -1.06130042
   37 H                    1.0000     3.30377245     1.42725147    -1.28016392
   38 C                    6.0000     3.52595192    -1.53348278     0.52509752
   39 H                    1.0000     4.31931418    -1.90853360    -0.12417920
   40 H                    1.0000     3.77609190    -1.76063141     1.56735540
   41 C                    6.0000     1.33244952    -1.30536293     0.17385451
   42 C                    6.0000    -0.26805519    -3.44381372    -0.11502568
   43 C                    6.0000     0.00199916    -4.16964580     1.05512917
   44 H                    1.0000     0.21605147    -3.63497112     1.97793029
   45 C                    6.0000     0.00717833    -5.55780549     1.08416782
   46 H                    1.0000     0.22050540    -6.07982652     2.01372231
   47 C                    6.0000    -0.26028300    -6.27921333    -0.07518769
   48 H                    1.0000    -0.25848906    -7.36588232    -0.06058415
   49 C                    6.0000    -0.52766183    -5.58968183    -1.24989922
   50 H                    1.0000    -0.73706888    -6.13732151    -2.16559804
   51 C                    6.0000    -0.52962778    -4.19598540    -1.26581004
   52 H                    1.0000    -0.74430045    -3.69057340    -2.20010234
   53 C                    6.0000     0.51664652     2.69583590     1.68957988
   54 H                    1.0000    -0.23191261     2.93907624     2.44544633
   55 H                    1.0000     1.49901503     2.57136605     2.14620110
   56 C                    6.0000     0.47307558     3.57421942     0.53075055
   57 C                    6.0000    -0.70363512     4.27970240     0.16958906
   58 H                    1.0000    -1.55669017     4.25057146     0.84341690
   59 C                    6.0000    -0.76690568     5.04576545    -0.98118179
   60 H                    1.0000    -1.67644979     5.59582589    -1.20793294
   61 C                    6.0000     0.32980754     5.13176739    -1.84160314
   62 H                    1.0000     0.28052023     5.74375220    -2.73684184
   63 C                    6.0000     1.48453040     4.42715111    -1.53155335
   64 H                    1.0000     2.34990024     4.48783287    -2.18627249
   65 C                    6.0000     1.55367236     3.65123207    -0.37709141
   66 H                    1.0000     2.48695676     3.16133760    -0.12007430
   67 N                    7.0000    -1.13637823     0.05970051     1.44233933
   68 N                    7.0000    -0.67065284     0.32575236    -1.33126151
   69 N                    7.0000     1.71371681    -0.07915593     0.28624203
   70 O                    8.0000    -1.22754595    -1.51816546    -2.43889944
   71 O                    8.0000    -1.91017301    -1.97797824     1.86773713
   72 O                    8.0000     2.31482635    -2.22295771     0.20232084

 Total times  cpu:    55660.4s     wall:    56968.8s
