============================== echo of input deck ==============================
echo

start feopt16_6311+g-star

geometry units angstroms noautosym noautoz
Fe	0.02619467	1.26647634	0.33479125
B	-0.23998715	-1.84262356	-0.06752552
C	-1.9889451	0.53632186	3.49623012
H	-1.42476192	-0.34832566	3.8060097
H	-2.79757431	0.69525097	4.21760905
H	-1.31610749	1.3932911	3.53652717
C	-2.5552685	0.34491656	2.09051927
C	-3.42673558	1.51828612	1.67391825
H	-2.87697293	2.45953055	1.74593276
H	-4.30566718	1.59716203	2.32200984
H	-3.771523	1.40079975	0.6429454
C	-3.29950308	-0.99379221	1.98323623
H	-3.62747655	-1.3968975	2.94257517
H	-4.15351113	-0.94617515	1.29828597
C	-1.36956784	-1.14011378	0.87539365
C	0.78623441	1.59343157	-3.23996014
H	0.90151194	2.4888316	-2.62488533
H	0.71093325	1.91218778	-4.28509781
H	1.68875643	0.98533686	-3.13200466
C	-0.44898564	0.80121084	-2.83190062
C	-1.70707536	1.65591768	-2.94130877
H	-2.59031854	1.08737652	-2.63640143
H	-1.85528871	1.99371113	-3.97241135
H	-1.62953028	2.54123631	-2.3054375
C	-0.57903401	-0.51191651	-3.63265432
H	-1.52115092	-0.59230627	-4.18054528
H	0.25133819	-0.67458488	-4.32500176
C	-0.37306214	-0.98747904	-1.44696363
C	3.33798073	0.71858749	2.2348062
H	3.17928344	1.78031187	2.03835301
H	4.38278001	0.58974828	2.53683325
H	2.70025446	0.43126913	3.07467999
C	3.03376192	-0.12711668	1.00822927
C	3.81641227	0.36271735	-0.20855872
H	3.65566338	-0.30116401	-1.063141
H	4.89031732	0.39260996	0.00409941
H	3.49499752	1.36571025	-0.49939454
C	3.29621823	-1.61840959	1.27641548
H	4.19249585	-2.0062357	0.78843407
H	3.34069209	-1.85018647	2.34619189
C	1.2194149	-1.35767866	0.49305667
C	-0.40160267	-3.44563419	-0.10134217
C	-0.75371756	-4.19735532	-1.22791027
H	-0.91305638	-3.69935773	-2.17699106
C	-0.90524999	-5.58174843	-1.17031355
H	-1.17858771	-6.12954394	-2.06890742
C	-0.70977617	-6.26145947	0.02395113
H	-0.82694263	-7.34087734	0.07051705
C	-0.36215483	-5.53967984	1.16182527
H	-0.20652404	-6.05418695	2.10686666
C	-0.21365512	-4.16108396	1.09103652
H	0.05855962	-3.62505971	1.99792349
C	0.23735463	2.7153182	1.70413868
H	-0.6730282	2.97419359	2.24883178
H	1.07560212	2.61021804	2.39378469
C	0.48044904	3.5905116	0.56261197
C	-0.59225421	4.20074924	-0.1335533
H	-1.59818949	4.1040928	0.26881497
C	-0.38214267	4.96860978	-1.26898237
H	-1.22842857	5.44476832	-1.75701972
C	0.90339272	5.14698786	-1.77650328
H	1.06691698	5.75683578	-2.65950693
C	1.97348346	4.5366966	-1.13107594
H	2.98277763	4.67038189	-1.51121437
C	1.76795234	3.76518622	0.00644553
H	2.62311237	3.34007998	0.52340727
N	-1.44782186	0.1213319	1.13442936
N	-0.30127062	0.29611569	-1.45303702
N	1.59316922	-0.13721123	0.6748883
O	-0.5461669	-1.55818736	-2.65154148
O	-2.33620873	-1.89449175	1.42113027
O	2.15813647	-2.29072523	0.72672649
end

basis
 Fe library "Stuttgart RSC 1997 ECP"
 B library 6-311+g*
 C library 6-311+g*
 O library 6-311+g*
 N library 6-311+g*
 H library 6-311+g*
end

ecp
 Fe library "Stuttgart RSC 1997 ECP"
end

scf
 triplet
 direct
 maxiter 200
 thresh 1.0e-6
 tol2e 1.0e-9
 vectors output fescf_opt.movecs
end

task scf energy

dft
 direct
 grid fine
 xc pbe0
 rodft
 cgmin
 mult 3
 maxiter 200
 vectors input fescf_opt.movecs output feopt16_6311+g-star.movecs
end

driver
 maxiter 200
end

task dft optimize
================================================================================

         Total SCF energy =  -1617.289553903835

       Multipole analysis of the density wrt the origin
       ------------------------------------------------

     L   x y z        total         open         nuclear
     -   - - -        -----         ----         -------
     0   0 0 0     -0.000000     -2.000000    270.000000

     1   1 0 0     -0.014829     -0.082751     -0.494964
     1   0 1 0      1.244981     -4.823071    -23.934849
     1   0 0 1     -0.544076     -1.272045     -6.328741

     2   2 0 0   -153.346412     -1.522112   3368.679459
     2   1 1 0     -4.526356     -0.009057    665.706556
     2   1 0 1      0.206792     -0.010179   -179.254448
     2   0 2 0   -190.046650    -13.126738   7867.731116
     2   0 1 1     -8.181940     -2.671813   -579.401930

         Total DFT energy =    -1625.953660407140
@ Step       Energy      Delta E   Gmax     Grms     Xrms     Xmax   Walltime
@ ---- ---------------- -------- -------- -------- -------- -------- --------
@    0   -1625.95366041  0.0D+00  0.00525  0.00054  0.00000  0.00000  30460.2
         Total DFT energy =    -1625.953542703312
         Total DFT energy =    -1625.953648665362
@    1   -1625.95364867  1.2D-05  0.00083  0.00016  0.00088  0.00504  35516.4
         Total DFT energy =    -1625.953592726855
         Total DFT energy =    -1625.953651995918
@    2   -1625.95365200 -3.3D-06  0.00083  0.00015  0.00040  0.00295  38835.0
         Total DFT energy =    -1625.953645335043
         Total DFT energy =    -1625.953654236369
@    3   -1625.95365424 -2.2D-06  0.00080  0.00013  0.00034  0.00211  41629.8
         Total DFT energy =    -1625.953654781277
         Total DFT energy =  -1625.953654781277
@    4   -1625.95365478 -5.4D-07  0.00068  0.00011  0.00060  0.00327  43001.5
         Total DFT energy =    -1625.953646792933
         Total DFT energy =    -1625.953656786792
@    5   -1625.95365679 -2.0D-06  0.00066  0.00010  0.00035  0.00276  45914.7
         Total DFT energy =    -1625.953656417438
         Total DFT energy =  -1625.953656417438
@    6   -1625.95365642  3.7D-07  0.00062  0.00012  0.00074  0.00423  47172.3
         Total DFT energy =    -1625.953659345768
         Total DFT energy =  -1625.953659345768
@    7   -1625.95365935 -2.9D-06  0.00037  0.00009  0.00068  0.00466  48431.0
         Total DFT energy =    -1625.953658827808
         Total DFT energy =  -1625.953658827808
@    8   -1625.95365883  5.2D-07  0.00047  0.00009  0.00084  0.00456  49692.8
         Total DFT energy =    -1625.953662136601
         Total DFT energy =  -1625.953662136601
@    9   -1625.95366214 -3.3D-06  0.00021  0.00005  0.00053  0.00400  51072.7
         Total DFT energy =    -1625.953662696691
         Total DFT energy =  -1625.953662696691
@   10   -1625.95366270 -5.6D-07  0.00029  0.00004  0.00039  0.00203  52448.0
         Total DFT energy =    -1625.953663503316

                       DFT Final Molecular Orbital Analysis
                       ------------------------------------

 Vector   40  Occ=2.000000D+00  E=-1.130158D+00

 Vector  269  Occ=0.000000D+00  E= 2.801467D-01

 Vector  270  Occ=0.000000D+00  E= 2.811527D-01

 Vector  271  Occ=0.000000D+00  E= 2.813557D-01

 Vector  272  Occ=0.000000D+00  E= 2.842049D-01

 Vector  273  Occ=0.000000D+00  E= 2.849639D-01

 Vector  274  Occ=0.000000D+00  E= 2.886646D-01

 Vector  275  Occ=0.000000D+00  E= 2.903542D-01

 Vector  276  Occ=0.000000D+00  E= 2.912716D-01

 Vector  277  Occ=0.000000D+00  E= 2.919172D-01

 Vector  278  Occ=0.000000D+00  E= 2.960914D-01

 Vector  279  Occ=0.000000D+00  E= 2.972144D-01

 Vector  280  Occ=0.000000D+00  E= 3.023619D-01

 Vector  281  Occ=0.000000D+00  E= 3.032988D-01

 Vector  282  Occ=0.000000D+00  E= 3.049965D-01

 Vector  283  Occ=0.000000D+00  E= 3.087921D-01

 Vector  284  Occ=0.000000D+00  E= 3.104409D-01

 Vector  285  Occ=0.000000D+00  E= 3.128860D-01

 Vector  286  Occ=0.000000D+00  E= 3.137361D-01

 Vector  287  Occ=0.000000D+00  E= 3.163361D-01

 Vector  288  Occ=0.000000D+00  E= 3.216527D-01

 Vector  289  Occ=0.000000D+00  E= 3.233386D-01

 Vector  290  Occ=0.000000D+00  E= 3.250492D-01

 Vector  291  Occ=0.000000D+00  E= 3.257477D-01

 Vector  292  Occ=0.000000D+00  E= 3.267248D-01

 Vector  293  Occ=0.000000D+00  E= 3.302550D-01

 Vector  294  Occ=0.000000D+00  E= 3.340476D-01

 Vector  295  Occ=0.000000D+00  E= 3.364332D-01

 Vector  296  Occ=0.000000D+00  E= 3.385219D-01

 Vector  297  Occ=0.000000D+00  E= 3.392804D-01

 Vector  298  Occ=0.000000D+00  E= 3.428764D-01

 Vector  299  Occ=0.000000D+00  E= 3.446900D-01

 Vector  300  Occ=0.000000D+00  E= 3.476614D-01

 Vector  301  Occ=0.000000D+00  E= 3.478861D-01

 Vector  302  Occ=0.000000D+00  E= 3.511544D-01

 Vector  303  Occ=0.000000D+00  E= 3.537584D-01

 Vector  304  Occ=0.000000D+00  E= 3.553626D-01

 Vector  305  Occ=0.000000D+00  E= 3.579242D-01

 Vector  306  Occ=0.000000D+00  E= 3.581339D-01

 Vector  307  Occ=0.000000D+00  E= 3.618968D-01

 Vector  308  Occ=0.000000D+00  E= 3.668751D-01

 Vector  309  Occ=0.000000D+00  E= 3.678856D-01

 Vector  310  Occ=0.000000D+00  E= 3.697789D-01

 Vector  311  Occ=0.000000D+00  E= 3.757305D-01

 Vector  312  Occ=0.000000D+00  E= 3.764521D-01

 Vector  313  Occ=0.000000D+00  E= 3.803154D-01

 Vector  314  Occ=0.000000D+00  E= 3.819401D-01

 Vector  315  Occ=0.000000D+00  E= 3.860912D-01

 Vector  316  Occ=0.000000D+00  E= 3.885023D-01

 Vector  317  Occ=0.000000D+00  E= 3.894681D-01

 Vector  318  Occ=0.000000D+00  E= 3.939321D-01

 Vector  319  Occ=0.000000D+00  E= 3.989938D-01

 Vector  320  Occ=0.000000D+00  E= 4.019647D-01

 Vector  321  Occ=0.000000D+00  E= 4.045025D-01

 Vector  322  Occ=0.000000D+00  E= 4.090333D-01

 Vector  323  Occ=0.000000D+00  E= 4.120982D-01

 Vector  324  Occ=0.000000D+00  E= 4.141794D-01

 Vector  325  Occ=0.000000D+00  E= 4.180450D-01

 Vector  326  Occ=0.000000D+00  E= 4.198465D-01

 Vector  327  Occ=0.000000D+00  E= 4.236379D-01

 Vector  328  Occ=0.000000D+00  E= 4.254831D-01

 Vector  329  Occ=0.000000D+00  E= 4.313747D-01

 Vector  330  Occ=0.000000D+00  E= 4.406915D-01

 Vector  331  Occ=0.000000D+00  E= 4.416184D-01

 Vector  332  Occ=0.000000D+00  E= 4.483858D-01

 Vector  333  Occ=0.000000D+00  E= 4.493330D-01

 Vector  334  Occ=0.000000D+00  E= 4.528594D-01

 Vector  335  Occ=0.000000D+00  E= 4.561031D-01

 Vector  336  Occ=0.000000D+00  E= 4.605438D-01

 Vector  337  Occ=0.000000D+00  E= 4.659237D-01

 Vector  338  Occ=0.000000D+00  E= 4.684037D-01

 Vector  339  Occ=0.000000D+00  E= 4.721499D-01

 Vector  340  Occ=0.000000D+00  E= 4.771469D-01

 Vector  341  Occ=0.000000D+00  E= 4.789086D-01

 Vector  342  Occ=0.000000D+00  E= 4.823927D-01

 Vector  343  Occ=0.000000D+00  E= 4.833688D-01

 Vector  344  Occ=0.000000D+00  E= 4.878850D-01

 Vector  345  Occ=0.000000D+00  E= 4.903799D-01

 Vector  346  Occ=0.000000D+00  E= 4.917751D-01

 Vector  347  Occ=0.000000D+00  E= 4.999563D-01

 Vector  348  Occ=0.000000D+00  E= 5.049421D-01

         Total DFT energy =  -1625.953663503316
@   11   -1625.95366350 -8.1D-07  0.00013  0.00003  0.00030  0.00131  53830.5
@   11   -1625.95366350 -8.1D-07  0.00013  0.00003  0.00030  0.00131  53830.5

 Output coordinates in angstroms (scale by  1.889725989 to convert to a.u.)

  No.       Tag          Charge          X              Y              Z
 ---- ---------------- ---------- -------------- -------------- --------------
    1 Fe                  26.0000     0.02468683     1.26730371     0.33412805
    2 B                    5.0000    -0.23991768    -1.84250975    -0.06821575
    3 C                    6.0000    -1.98799826     0.53539284     3.49639478
    4 H                    1.0000    -1.42418256    -0.34957583     3.80581697
    5 H                    1.0000    -2.79622560     0.69479486     4.21803885
    6 H                    1.0000    -1.31466548     1.39207210     3.53666220
    7 C                    6.0000    -2.55453636     0.34482504     2.09068809
    8 C                    6.0000    -3.42556580     1.51869509     1.67474637
    9 H                    1.0000    -2.87486213     2.45941790     1.74701491
   10 H                    1.0000    -4.30435928     1.59805332     2.32279838
   11 H                    1.0000    -3.77016230     1.40186663     0.64360252
   12 C                    6.0000    -3.29930746    -0.99351627     1.98305581
   13 H                    1.0000    -3.62782352    -1.39685669     2.94208268
   14 H                    1.0000    -4.15304473    -0.94543260     1.29775809
   15 C                    6.0000    -1.36959721    -1.14017473     0.87488169
   16 C                    6.0000     0.78522389     1.59401660    -3.23988439
   17 H                    1.0000     0.90061769     2.48902358    -2.62425729
   18 H                    1.0000     0.70983603     1.91319522    -4.28483538
   19 H                    1.0000     1.68772675     0.98578160    -3.13222054
   20 C                    6.0000    -0.44995953     0.80172652    -2.83192303
   21 C                    6.0000    -1.70788130     1.65666325    -2.94151293
   22 H                    1.0000    -2.59131877     1.08850419    -2.63640540
   23 H                    1.0000    -1.85608765     1.99428757    -3.97264285
   24 H                    1.0000    -1.63001685     2.54207511    -2.30578138
   25 C                    6.0000    -0.58007161    -0.51118516    -3.63295021
   26 H                    1.0000    -1.52270236    -0.59178757    -4.17998005
   27 H                    1.0000     0.24970198    -0.67322598    -4.32617791
   28 C                    6.0000    -0.37319652    -0.98723494    -1.44751497
   29 C                    6.0000     3.33718662     0.71928677     2.23538508
   30 H                    1.0000     3.17936708     1.78114205     2.03882206
   31 H                    1.0000     4.38168426     0.58982837     2.53810844
   32 H                    1.0000     2.69859021     0.43226017     3.07467455
   33 C                    6.0000     3.03327798    -0.12617807     1.00865171
   34 C                    6.0000     3.81598125     0.36344882    -0.20814948
   35 H                    1.0000     3.65548789    -0.30068690    -1.06254285
   36 H                    1.0000     4.88980551     0.39393206     0.00478578
   37 H                    1.0000     3.49417352     1.36622896    -0.49944441
   38 C                    6.0000     3.29596350    -1.61745765     1.27675166
   39 H                    1.0000     4.19256921    -2.00483252     0.78912123
   40 H                    1.0000     3.33993521    -1.84943545     2.34653676
   41 C                    6.0000     1.21908314    -1.35711379     0.49308815
   42 C                    6.0000    -0.40106534    -3.44570981    -0.10168444
   43 C                    6.0000    -0.75290652    -4.19791340    -1.22804011
   44 H                    1.0000    -0.91202877    -3.70031378    -2.17738129
   45 C                    6.0000    -0.90464553    -5.58229718    -1.16982294
   46 H                    1.0000    -1.17790633    -6.13050543    -2.06820895
   47 C                    6.0000    -0.70950192    -6.26151504     0.02477999
   48 H                    1.0000    -0.82698120    -7.34087828     0.07188565
   49 C                    6.0000    -0.36184080    -5.53928443     1.16234523
   50 H                    1.0000    -0.20631858    -6.05339099     2.10763053
   51 C                    6.0000    -0.21315314    -4.16074238     1.09097126
   52 H                    1.0000     0.05904875    -3.62441660     1.99767547
   53 C                    6.0000     0.23584124     2.71525181     1.70424458
   54 H                    1.0000    -0.67435987     2.97467473     2.24887486
   55 H                    1.0000     1.07387379     2.60902228     2.39404719
   56 C                    6.0000     0.48020325     3.59009975     0.56295181
   57 C                    6.0000    -0.59193347     4.19990962    -0.13445635
   58 H                    1.0000    -1.59807367     4.10316081     0.26734323
   59 C                    6.0000    -0.38088792     4.96758802    -1.26980175
   60 H                    1.0000    -1.22666578     5.44423645    -1.75825261
   61 C                    6.0000     0.90510212     5.14600700    -1.77617310
   62 H                    1.0000     1.06934246     5.75573392    -2.65910295
   63 C                    6.0000     1.97457043     4.53505211    -1.13030658
   64 H                    1.0000     2.98413632     4.66838546    -1.50986107
   65 C                    6.0000     1.76807985     3.76386383     0.00725918
   66 H                    1.0000     2.62274755     3.33842957     0.52475123
   67 N                    7.0000    -1.44762379     0.12125228     1.13420004
   68 N                    7.0000    -0.30257670     0.29646516    -1.45308193
   69 N                    7.0000     1.59294249    -0.13669707     0.67447705
   70 O                    8.0000    -0.54571159    -1.55788811    -2.65225006
   71 O                    8.0000    -2.33625575    -1.89446001     1.42079441
   72 O                    8.0000     2.15828827    -2.28973859     0.72637362

 Total times  cpu:    52568.3s     wall:    53830.5s
