============================== echo of input deck ==============================
echo

start feopt40_6311+g-star

geometry units angstroms noautosym noautoz
Fe	0.03249674	1.35794477	0.3650186
B	-0.15998273	-1.79414022	-0.01628552
C	-1.16438483	0.43477573	3.90408298
H	-0.56591952	-0.46548053	4.07202506
H	-1.81687089	0.57776012	4.7719546
H	-0.4824486	1.28232379	3.84060079
C	-1.99346345	0.29554923	2.62854622
C	-2.91856442	1.48354293	2.42525207
H	-2.35560811	2.41888902	2.40173856
H	-3.64587402	1.55179658	3.24070153
H	-3.46799662	1.39352988	1.48420701
C	-2.75632497	-1.03514873	2.62787645
H	-2.91632865	-1.45638951	3.62138391
H	-3.71531583	-0.96909952	2.10145823
C	-1.06856895	-1.16201278	1.17661042
C	-0.13184234	1.22828286	-3.52623601
H	0.45682866	2.04010025	-3.09877198
H	-0.53398703	1.56460342	-4.48780418
H	0.53435707	0.38019107	-3.71014788
C	-1.26210954	0.82974413	-2.58141776
C	-2.23795856	1.9740617	-2.36660238
H	-3.0208143	1.68937392	-1.65776218
H	-2.71808728	2.25640797	-3.30944395
H	-1.72561535	2.8569584	-1.97725573
C	-1.95798168	-0.44769884	-3.06924793
H	-3.0301039	-0.45527656	-2.84283026
H	-1.81105207	-0.65494798	-4.13042309
C	-0.72936386	-0.92210663	-1.26598464
C	3.7691569	0.90317821	1.45987788
H	3.60340793	1.95558592	1.21805788
H	4.84923846	0.76213427	1.57412338
H	3.29556974	0.69544249	2.42267166
C	3.22999285	-0.02091371	0.37932671
C	3.78782851	0.34945315	-0.99518653
H	3.45546884	-0.36805999	-1.75083686
H	4.88293937	0.35061923	-0.9813599
H	3.45304013	1.34058798	-1.30929515
C	3.52856518	-1.49178466	0.70201412
H	4.358408	-1.91312538	0.13170727
H	3.70440787	-1.65732608	1.77125651
C	1.36086677	-1.25607929	0.23218049
C	-0.19611358	-3.39935633	-0.14269816
C	-0.18216905	-4.20602588	1.00397842
H	-0.22530649	-3.74290126	1.98575811
C	-0.11644436	-5.59277179	0.93335646
H	-0.11035565	-6.18094109	1.84778052
C	-0.05760308	-6.22698329	-0.30264271
H	-0.00743651	-7.31080984	-0.36440637
C	-0.06076067	-5.45404093	-1.4569181
H	-0.01094865	-5.93264471	-2.43189033
C	-0.1269218	-4.06604682	-1.372607
H	-0.12985796	-3.49401421	-2.29448707
C	0.54032304	2.69748498	1.79232552
H	-0.14140953	2.95930605	2.60009203
H	1.54257536	2.47881689	2.15555163
C	0.43173761	3.52080245	0.61748642
C	-0.64861123	4.42591705	0.39968992
H	-1.34913526	4.60285888	1.21178355
C	-0.77521626	5.12258734	-0.77934148
H	-1.58902422	5.83360196	-0.89526207
C	0.14434423	4.94227364	-1.82730887
H	0.04672574	5.51290266	-2.74547137
C	1.17654834	4.04221096	-1.66427413
H	1.91336676	3.91169395	-2.45265112
C	1.31540731	3.31325959	-0.47261355
H	2.20909201	2.71986435	-0.31913697
N	-1.09539681	0.09463223	1.46713042
N	-0.68896116	0.36478919	-1.2974402
N	1.74858662	-0.03026757	0.31304462
O	-1.34325645	-1.50068267	-2.314257
O	-1.91174906	-1.92766306	1.88865644
O	2.33172813	-2.18346993	0.33830122
end

basis
 Fe library "Stuttgart RSC 1997 ECP"
 B library 6-311+g*
 C library 6-311+g*
 O library 6-311+g*
 N library 6-311+g*
 H library 6-311+g*
end

ecp
 Fe library "Stuttgart RSC 1997 ECP"
end

scf
 triplet
 direct
 maxiter 200
 thresh 1.0e-6
 tol2e 1.0e-9
 vectors output fescf_opt.movecs
end

task scf energy

dft
 direct
 grid fine
 xc pbe0
 rodft
 cgmin
 mult 3
 maxiter 200
 vectors input fescf_opt.movecs output feopt40_6311+g-star.movecs
end

driver
 maxiter 200
end

task dft optimize
================================================================================

         Total SCF energy =  -1617.279166825018

       Multipole analysis of the density wrt the origin
       ------------------------------------------------

     L   x y z        total         open         nuclear
     -   - - -        -----         ----         -------
     0   0 0 0     -0.000000     -2.000000    270.000000

     1   1 0 0     -0.417101     -0.071987     -0.563716
     1   0 1 0      1.501628     -5.129533    -25.481056
     1   0 0 1     -0.300470     -1.320610     -6.591407

     2   2 0 0   -154.697702     -1.541917   3224.610688
     2   1 1 0     -7.027395      0.244131     -8.053575
     2   1 0 1     -1.917082     -0.015088   -145.499923
     2   0 2 0   -187.101629    -14.568763   7638.369761
     2   0 1 1     -6.559450     -3.196866   -358.760865

         Total DFT energy =    -1625.955053401655
@ Step       Energy      Delta E   Gmax     Grms     Xrms     Xmax   Walltime
@ ---- ---------------- -------- -------- -------- -------- -------- --------
@    0   -1625.95505340  0.0D+00  0.00250  0.00031  0.00000  0.00000  35238.9
         Total DFT energy =    -1625.954986276781
         Total DFT energy =    -1625.955049119121
@    1   -1625.95504912  4.3D-06  0.00053  0.00010  0.00060  0.00331  39542.3
         Total DFT energy =    -1625.955031691984
         Total DFT energy =    -1625.955051318245
@    2   -1625.95505132 -2.2D-06  0.00051  0.00008  0.00036  0.00264  43698.2
         Total DFT energy =    -1625.955033213674
         Total DFT energy =    -1625.955052020980

                       DFT Final Molecular Orbital Analysis
                       ------------------------------------

 Vector   40  Occ=2.000000D+00  E=-1.131663D+00

 Vector  269  Occ=0.000000D+00  E= 2.766981D-01

 Vector  270  Occ=0.000000D+00  E= 2.785701D-01

 Vector  271  Occ=0.000000D+00  E= 2.815298D-01

 Vector  272  Occ=0.000000D+00  E= 2.843926D-01

 Vector  273  Occ=0.000000D+00  E= 2.850297D-01

 Vector  274  Occ=0.000000D+00  E= 2.895511D-01

 Vector  275  Occ=0.000000D+00  E= 2.907490D-01

 Vector  276  Occ=0.000000D+00  E= 2.920006D-01

 Vector  277  Occ=0.000000D+00  E= 2.941478D-01

 Vector  278  Occ=0.000000D+00  E= 2.973001D-01

 Vector  279  Occ=0.000000D+00  E= 2.974914D-01

 Vector  280  Occ=0.000000D+00  E= 3.010623D-01

 Vector  281  Occ=0.000000D+00  E= 3.030777D-01

 Vector  282  Occ=0.000000D+00  E= 3.069919D-01

 Vector  283  Occ=0.000000D+00  E= 3.126542D-01

 Vector  284  Occ=0.000000D+00  E= 3.132535D-01

 Vector  285  Occ=0.000000D+00  E= 3.137321D-01

 Vector  286  Occ=0.000000D+00  E= 3.151305D-01

 Vector  287  Occ=0.000000D+00  E= 3.179923D-01

 Vector  288  Occ=0.000000D+00  E= 3.191198D-01

 Vector  289  Occ=0.000000D+00  E= 3.231522D-01

 Vector  290  Occ=0.000000D+00  E= 3.245146D-01

 Vector  291  Occ=0.000000D+00  E= 3.284809D-01

 Vector  292  Occ=0.000000D+00  E= 3.306133D-01

 Vector  293  Occ=0.000000D+00  E= 3.331094D-01

 Vector  294  Occ=0.000000D+00  E= 3.350313D-01

 Vector  295  Occ=0.000000D+00  E= 3.361272D-01

 Vector  296  Occ=0.000000D+00  E= 3.366707D-01

 Vector  297  Occ=0.000000D+00  E= 3.388775D-01

 Vector  298  Occ=0.000000D+00  E= 3.428542D-01

 Vector  299  Occ=0.000000D+00  E= 3.434641D-01

 Vector  300  Occ=0.000000D+00  E= 3.449713D-01

 Vector  301  Occ=0.000000D+00  E= 3.462255D-01

 Vector  302  Occ=0.000000D+00  E= 3.516500D-01

 Vector  303  Occ=0.000000D+00  E= 3.537555D-01

 Vector  304  Occ=0.000000D+00  E= 3.576344D-01

 Vector  305  Occ=0.000000D+00  E= 3.585486D-01

 Vector  306  Occ=0.000000D+00  E= 3.625946D-01

 Vector  307  Occ=0.000000D+00  E= 3.638673D-01

 Vector  308  Occ=0.000000D+00  E= 3.695554D-01

 Vector  309  Occ=0.000000D+00  E= 3.704125D-01

 Vector  310  Occ=0.000000D+00  E= 3.732299D-01

 Vector  311  Occ=0.000000D+00  E= 3.748457D-01

 Vector  312  Occ=0.000000D+00  E= 3.780793D-01

 Vector  313  Occ=0.000000D+00  E= 3.805495D-01

 Vector  314  Occ=0.000000D+00  E= 3.830172D-01

 Vector  315  Occ=0.000000D+00  E= 3.849908D-01

 Vector  316  Occ=0.000000D+00  E= 3.861586D-01

 Vector  317  Occ=0.000000D+00  E= 3.900345D-01

 Vector  318  Occ=0.000000D+00  E= 3.929105D-01

 Vector  319  Occ=0.000000D+00  E= 3.956110D-01

 Vector  320  Occ=0.000000D+00  E= 3.992858D-01

 Vector  321  Occ=0.000000D+00  E= 4.032870D-01

 Vector  322  Occ=0.000000D+00  E= 4.063161D-01

 Vector  323  Occ=0.000000D+00  E= 4.132935D-01

 Vector  324  Occ=0.000000D+00  E= 4.177610D-01

 Vector  325  Occ=0.000000D+00  E= 4.186213D-01

 Vector  326  Occ=0.000000D+00  E= 4.234519D-01

 Vector  327  Occ=0.000000D+00  E= 4.284321D-01

 Vector  328  Occ=0.000000D+00  E= 4.314324D-01

 Vector  329  Occ=0.000000D+00  E= 4.360275D-01

 Vector  330  Occ=0.000000D+00  E= 4.397582D-01

 Vector  331  Occ=0.000000D+00  E= 4.455320D-01

 Vector  332  Occ=0.000000D+00  E= 4.471423D-01

 Vector  333  Occ=0.000000D+00  E= 4.502855D-01

 Vector  334  Occ=0.000000D+00  E= 4.539597D-01

 Vector  335  Occ=0.000000D+00  E= 4.587332D-01

 Vector  336  Occ=0.000000D+00  E= 4.647456D-01

 Vector  337  Occ=0.000000D+00  E= 4.662073D-01

 Vector  338  Occ=0.000000D+00  E= 4.673519D-01

 Vector  339  Occ=0.000000D+00  E= 4.690804D-01

 Vector  340  Occ=0.000000D+00  E= 4.751483D-01

 Vector  341  Occ=0.000000D+00  E= 4.796479D-01

 Vector  342  Occ=0.000000D+00  E= 4.832524D-01

 Vector  343  Occ=0.000000D+00  E= 4.857495D-01

 Vector  344  Occ=0.000000D+00  E= 4.905018D-01

 Vector  345  Occ=0.000000D+00  E= 4.925372D-01

 Vector  346  Occ=0.000000D+00  E= 4.929524D-01

 Vector  347  Occ=0.000000D+00  E= 4.980162D-01

 Vector  348  Occ=0.000000D+00  E= 5.047528D-01

@    3   -1625.95505202 -7.0D-07  0.00040  0.00007  0.00019  0.00171  47079.0
@    3   -1625.95505202 -7.0D-07  0.00040  0.00007  0.00019  0.00171  47079.0

 Output coordinates in angstroms (scale by  1.889725989 to convert to a.u.)

  No.       Tag          Charge          X              Y              Z
 ---- ---------------- ---------- -------------- -------------- --------------
    1 Fe                  26.0000     0.02906261     1.34883535     0.34950309
    2 B                    5.0000    -0.16286160    -1.80390358    -0.03262694
    3 C                    6.0000    -1.16687889     0.42516409     3.88777561
    4 H                    1.0000    -0.56848707    -0.47513684     4.05580820
    5 H                    1.0000    -1.81945117     0.56815919     4.75561159
    6 H                    1.0000    -0.48497429     1.27277086     3.82445414
    7 C                    6.0000    -1.99581759     0.28605768     2.61210015
    8 C                    6.0000    -2.92097361     1.47394560     2.40876162
    9 H                    1.0000    -2.35819175     2.40937193     2.38537988
   10 H                    1.0000    -3.64823113     1.54226554     3.22431816
   11 H                    1.0000    -3.47057715     1.38388895     1.46781805
   12 C                    6.0000    -2.75881879    -1.04463059     2.61176059
   13 H                    1.0000    -2.91889189    -1.46575231     3.60529522
   14 H                    1.0000    -3.71781116    -0.97864431     2.08528352
   15 C                    6.0000    -1.07080522    -1.17220088     1.16076841
   16 C                    6.0000    -0.13438119     1.21872556    -3.54216632
   17 H                    1.0000     0.45429769     2.03059596    -3.11482424
   18 H                    1.0000    -0.53656524     1.55502824    -4.50377799
   19 H                    1.0000     0.53180530     0.37063405    -3.72621877
   20 C                    6.0000    -1.26474014     0.82023424    -2.59753260
   21 C                    6.0000    -2.24063826     1.96451310    -2.38275939
   22 H                    1.0000    -3.02370682     1.67982968    -1.67421778
   23 H                    1.0000    -2.72057913     2.24692090    -3.32569589
   24 H                    1.0000    -1.72817554     2.84725416    -1.99330263
   25 C                    6.0000    -1.96054236    -0.45721286    -3.08556803
   26 H                    1.0000    -3.03267957    -0.46481482    -2.85913494
   27 H                    1.0000    -1.81366059    -0.66445580    -4.14672382
   28 C                    6.0000    -0.73282975    -0.93136119    -1.28159837
   29 C                    6.0000     3.76637332     0.89385067     1.44371400
   30 H                    1.0000     3.60072769     1.94626705     1.20190041
   31 H                    1.0000     4.84645167     0.75262477     1.55791248
   32 H                    1.0000     3.29287782     0.68598537     2.40655747
   33 C                    6.0000     3.22679571    -0.03004772     0.36322178
   34 C                    6.0000     3.78502474     0.33996822    -1.01129647
   35 H                    1.0000     3.45276734    -0.37756921    -1.76696494
   36 H                    1.0000     4.88014247     0.34103887    -0.99747006
   37 H                    1.0000     3.45038603     1.33109014    -1.32555857
   38 C                    6.0000     3.52542463    -1.50099261     0.68591576
   39 H                    1.0000     4.35505339    -1.92255117     0.11535364
   40 H                    1.0000     3.70165066    -1.66673191     1.75504407
   41 C                    6.0000     1.35766992    -1.26518840     0.21568757
   42 C                    6.0000    -0.19887990    -3.40904521    -0.15903456
   43 C                    6.0000    -0.18492053    -4.21567566     0.98766376
   44 H                    1.0000    -0.22797314    -3.75255419     1.96942276
   45 C                    6.0000    -0.11905351    -5.60239312     0.91700845
   46 H                    1.0000    -0.11302863    -6.19057164     1.83142559
   47 C                    6.0000    -0.06022738    -6.23661188    -0.31895842
   48 H                    1.0000    -0.01009918    -7.32044837    -0.38065390
   49 C                    6.0000    -0.06341473    -5.46364611    -1.47319269
   50 H                    1.0000    -0.01360987    -5.94222580    -2.44820162
   51 C                    6.0000    -0.12952453    -4.07564420    -1.38894440
   52 H                    1.0000    -0.13252844    -3.50353335    -2.31075666
   53 C                    6.0000     0.53758229     2.68746421     1.77558323
   54 H                    1.0000    -0.14422342     2.94951017     2.58328818
   55 H                    1.0000     1.53957899     2.46907642     2.13956205
   56 C                    6.0000     0.43016089     3.51172949     0.60123459
   57 C                    6.0000    -0.65076619     4.41641326     0.38341431
   58 H                    1.0000    -1.35176692     4.59315328     1.19518422
   59 C                    6.0000    -0.77813256     5.11242373    -0.79588152
   60 H                    1.0000    -1.59214877     5.82327985    -0.91163250
   61 C                    6.0000     0.14196520     4.93296041    -1.84351343
   62 H                    1.0000     0.04421347     5.50360088    -2.76163101
   63 C                    6.0000     1.17418464     4.03282993    -1.68064674
   64 H                    1.0000     1.91085696     3.90219868    -2.46913211
   65 C                    6.0000     1.31313614     3.30362945    -0.48912385
   66 H                    1.0000     2.20670802     2.71030548    -0.33536505
   67 N                    7.0000    -1.09649433     0.08407052     1.45175149
   68 N                    7.0000    -0.69227887     0.35544556    -1.31312400
   69 N                    7.0000     1.74529299    -0.03922901     0.29694618
   70 O                    8.0000    -1.34594822    -1.51006549    -2.33034848
   71 O                    8.0000    -1.91461125    -1.93745846     1.87247539
   72 O                    8.0000     2.32850994    -2.19244404     0.32240711

 Total times  cpu:    46515.8s     wall:    47079.0s
