============================== echo of input deck ==============================
echo

start feopt50_6311+g-star

geometry units angstroms noautosym noautoz
Fe	0.01556006	1.30425929	0.32643276
B	-0.29254545	-1.80831032	-0.04792566
C	-1.9804448	0.62995443	3.50192016
H	-1.43272878	-0.26399715	3.81463457
H	-2.78246338	0.80939965	4.2257254
H	-1.29035484	1.47351661	3.53338307
C	-2.55641428	0.44115569	2.09980296
C	-3.40352424	1.63024427	1.67765231
H	-2.83209486	2.55913713	1.73810602
H	-4.27685681	1.73443836	2.3297171
H	-3.75652667	1.51166831	0.64957715
C	-3.33062564	-0.88115878	2.00502484
H	-3.66527085	-1.26945262	2.9681438
H	-4.18500652	-0.81956063	1.32159029
C	-1.40722883	-1.0802441	0.89370254
C	0.73462304	1.55018887	-3.29377684
H	0.91581509	2.44224692	-2.69048663
H	0.63055209	1.86506592	-4.33755508
H	1.61204766	0.9016427	-3.21766822
C	-0.51749911	0.81805047	-2.82873658
C	-1.74053711	1.7256457	-2.90040299
H	-2.63346829	1.20128233	-2.54789126
H	-1.91916212	2.05283787	-3.93001502
H	-1.59821415	2.6175136	-2.28479436
C	-0.73431359	-0.49595423	-3.60884155
H	-1.71511564	-0.55629482	-4.08763409
H	0.0400506	-0.68237598	-4.35742663
C	-0.43262469	-0.96080423	-1.43142414
C	3.32316615	0.70194216	2.25494349
H	3.21394979	1.76626071	2.03872468
H	4.35513957	0.5359497	2.58214649
H	2.65704767	0.45570892	3.08572619
C	3.0104476	-0.15480359	1.0378987
C	3.82423896	0.28633327	-0.17721738
H	3.66062304	-0.39479596	-1.01747817
H	4.8950674	0.29622139	0.05229715
H	3.53173108	1.28823197	-0.49965539
C	3.22719168	-1.64735308	1.33648067
H	4.12337677	-2.06658569	0.87519389
H	3.24209211	-1.86192294	2.41085996
C	1.17269474	-1.34340586	0.51310517
C	-0.46626928	-3.41050404	-0.06677629
C	-0.7189748	-4.18425666	-1.20484455
H	-0.8061068	-3.70346908	-2.17191279
C	-0.8645782	-5.56885758	-1.1351948
H	-1.06073694	-6.13411154	-2.04306613
C	-0.76139041	-6.2265278	0.08263538
H	-0.87533216	-7.30585158	0.13868994
C	-0.50994188	-5.48288637	1.23178423
H	-0.42600394	-5.98007095	2.19501248
C	-0.36660628	-4.10458385	1.14880491
H	-0.170461	-3.5511627	2.06495154
C	0.2384323	2.75905001	1.68743782
H	-0.66211605	3.06078207	2.22566109
H	1.07084049	2.62272002	2.37885205
C	0.52191344	3.60045362	0.53223315
C	-0.50856036	4.29359929	-0.15179556
H	-1.51162809	4.28537162	0.26859986
C	-0.25502065	5.02623178	-1.29969656
H	-1.06638412	5.56787015	-1.77877773
C	1.03229669	5.08819933	-1.83397162
H	1.22977407	5.67225981	-2.72736626
C	2.05712521	4.39429243	-1.20313322
H	3.06676285	4.43549802	-1.60317486
C	1.80744949	3.6542345	-0.05187577
H	2.63243863	3.16596665	0.45697704
N	-1.45732372	0.18480437	1.14229928
N	-0.3376943	0.32128189	-1.450566
N	1.57424103	-0.13047312	0.68383429
O	-0.65769527	-1.53706066	-2.62475805
O	-2.38949276	-1.80790034	1.44743715
O	2.08382341	-2.29738555	0.77269153
end

basis
 Fe library "Stuttgart RSC 1997 ECP"
 B library 6-311+g*
 C library 6-311+g*
 O library 6-311+g*
 N library 6-311+g*
 H library 6-311+g*
end

ecp
 Fe library "Stuttgart RSC 1997 ECP"
end

scf
 triplet
 direct
 maxiter 200
 thresh 1.0e-6
 tol2e 1.0e-9
 vectors output fescf_opt.movecs
end

task scf energy

dft
 direct
 grid fine
 xc pbe0
 rodft
 cgmin
 mult 3
 maxiter 200
 vectors input fescf_opt.movecs output feopt50_6311+g-star.movecs
end

driver
 maxiter 200
end

task dft optimize
================================================================================

         Total SCF energy =  -1617.288489395724

       Multipole analysis of the density wrt the origin
       ------------------------------------------------

     L   x y z        total         open         nuclear
     -   - - -        -----         ----         -------
     0   0 0 0     -0.000000     -2.000000    270.000000

     1   1 0 0     -0.051839     -0.115516     -0.680700
     1   0 1 0      1.269183     -4.878107    -24.212218
     1   0 0 1     -0.537917     -1.202538     -5.993638

     2   2 0 0   -153.911525     -1.510273   3380.085717
     2   1 1 0     -5.648150     -0.051574    693.545549
     2   1 0 1     -0.122436     -0.051080   -180.432598
     2   0 2 0   -189.716022    -13.383351   7798.769855
     2   0 1 1     -7.796108     -2.549480   -620.239093

         Total DFT energy =    -1625.953730618930
@ Step       Energy      Delta E   Gmax     Grms     Xrms     Xmax   Walltime
@ ---- ---------------- -------- -------- -------- -------- -------- --------
@    0   -1625.95373062  0.0D+00  0.00290  0.00043  0.00000  0.00000  28210.5
         Total DFT energy =    -1625.953605154483
         Total DFT energy =    -1625.953722013737
@    1   -1625.95372201  8.6D-06  0.00087  0.00014  0.00078  0.00588  32037.9
         Total DFT energy =    -1625.953700358686
         Total DFT energy =    -1625.953725279445
@    2   -1625.95372528 -3.3D-06  0.00060  0.00011  0.00038  0.00348  34828.2
         Total DFT energy =    -1625.953713425617
         Total DFT energy =    -1625.953727024578
@    3   -1625.95372702 -1.7D-06  0.00053  0.00009  0.00030  0.00220  37915.3
         Total DFT energy =    -1625.953725175379
         Total DFT energy =  -1625.953725175379
@    4   -1625.95372518  1.8D-06  0.00041  0.00010  0.00090  0.00631  39330.9
         Total DFT energy =    -1625.953728004697
         Total DFT energy =  -1625.953728004697
@    5   -1625.95372800 -2.8D-06  0.00039  0.00009  0.00074  0.00520  40593.5
         Total DFT energy =    -1625.953725796419
         Total DFT energy =  -1625.953725796419
@    6   -1625.95372580  2.2D-06  0.00052  0.00010  0.00105  0.00653  42518.5
         Total DFT energy =    -1625.953730514436
         Total DFT energy =  -1625.953730514436
@    7   -1625.95373051 -4.7D-06  0.00023  0.00004  0.00074  0.00501  43902.8
         Total DFT energy =    -1625.953729396879
         Total DFT energy =  -1625.953729396879
@    8   -1625.95372940  1.1D-06  0.00050  0.00009  0.00053  0.00375  45158.3
         Total DFT energy =    -1625.953730858705
         Total DFT energy =  -1625.953730858705
@    9   -1625.95373086 -1.5D-06  0.00022  0.00005  0.00037  0.00227  46533.8
         Total DFT energy =    -1625.953731364597
         Total DFT energy =  -1625.953731364597
@   10   -1625.95373136 -5.1D-07  0.00020  0.00005  0.00038  0.00217  47918.5
         Total DFT energy =    -1625.953731995415

                       DFT Final Molecular Orbital Analysis
                       ------------------------------------

 Vector   40  Occ=2.000000D+00  E=-1.130369D+00

 Vector  269  Occ=0.000000D+00  E= 2.788949D-01

 Vector  270  Occ=0.000000D+00  E= 2.810085D-01

 Vector  271  Occ=0.000000D+00  E= 2.827983D-01

 Vector  272  Occ=0.000000D+00  E= 2.843410D-01

 Vector  273  Occ=0.000000D+00  E= 2.858328D-01

 Vector  274  Occ=0.000000D+00  E= 2.885384D-01

 Vector  275  Occ=0.000000D+00  E= 2.903141D-01

 Vector  276  Occ=0.000000D+00  E= 2.912553D-01

 Vector  277  Occ=0.000000D+00  E= 2.923911D-01

 Vector  278  Occ=0.000000D+00  E= 2.950025D-01

 Vector  279  Occ=0.000000D+00  E= 2.967626D-01

 Vector  280  Occ=0.000000D+00  E= 3.027302D-01

 Vector  281  Occ=0.000000D+00  E= 3.036275D-01

 Vector  282  Occ=0.000000D+00  E= 3.057705D-01

 Vector  283  Occ=0.000000D+00  E= 3.085037D-01

 Vector  284  Occ=0.000000D+00  E= 3.098110D-01

 Vector  285  Occ=0.000000D+00  E= 3.128343D-01

 Vector  286  Occ=0.000000D+00  E= 3.146350D-01

 Vector  287  Occ=0.000000D+00  E= 3.166087D-01

 Vector  288  Occ=0.000000D+00  E= 3.217143D-01

 Vector  289  Occ=0.000000D+00  E= 3.237456D-01

 Vector  290  Occ=0.000000D+00  E= 3.258053D-01

 Vector  291  Occ=0.000000D+00  E= 3.267349D-01

 Vector  292  Occ=0.000000D+00  E= 3.272986D-01

 Vector  293  Occ=0.000000D+00  E= 3.310744D-01

 Vector  294  Occ=0.000000D+00  E= 3.341375D-01

 Vector  295  Occ=0.000000D+00  E= 3.368496D-01

 Vector  296  Occ=0.000000D+00  E= 3.377689D-01

 Vector  297  Occ=0.000000D+00  E= 3.399052D-01

 Vector  298  Occ=0.000000D+00  E= 3.437757D-01

 Vector  299  Occ=0.000000D+00  E= 3.446693D-01

 Vector  300  Occ=0.000000D+00  E= 3.473283D-01

 Vector  301  Occ=0.000000D+00  E= 3.474967D-01

 Vector  302  Occ=0.000000D+00  E= 3.506357D-01

 Vector  303  Occ=0.000000D+00  E= 3.523041D-01

 Vector  304  Occ=0.000000D+00  E= 3.549113D-01

 Vector  305  Occ=0.000000D+00  E= 3.586225D-01

 Vector  306  Occ=0.000000D+00  E= 3.595735D-01

 Vector  307  Occ=0.000000D+00  E= 3.610669D-01

 Vector  308  Occ=0.000000D+00  E= 3.663487D-01

 Vector  309  Occ=0.000000D+00  E= 3.685877D-01

 Vector  310  Occ=0.000000D+00  E= 3.694862D-01

 Vector  311  Occ=0.000000D+00  E= 3.770602D-01

 Vector  312  Occ=0.000000D+00  E= 3.783866D-01

 Vector  313  Occ=0.000000D+00  E= 3.801394D-01

 Vector  314  Occ=0.000000D+00  E= 3.827742D-01

 Vector  315  Occ=0.000000D+00  E= 3.865083D-01

 Vector  316  Occ=0.000000D+00  E= 3.886759D-01

 Vector  317  Occ=0.000000D+00  E= 3.897044D-01

 Vector  318  Occ=0.000000D+00  E= 3.938649D-01

 Vector  319  Occ=0.000000D+00  E= 3.993432D-01

 Vector  320  Occ=0.000000D+00  E= 4.028518D-01

 Vector  321  Occ=0.000000D+00  E= 4.049227D-01

 Vector  322  Occ=0.000000D+00  E= 4.073515D-01

 Vector  323  Occ=0.000000D+00  E= 4.110760D-01

 Vector  324  Occ=0.000000D+00  E= 4.131192D-01

 Vector  325  Occ=0.000000D+00  E= 4.178118D-01

 Vector  326  Occ=0.000000D+00  E= 4.199711D-01

 Vector  327  Occ=0.000000D+00  E= 4.220127D-01

 Vector  328  Occ=0.000000D+00  E= 4.271561D-01

 Vector  329  Occ=0.000000D+00  E= 4.301412D-01

 Vector  330  Occ=0.000000D+00  E= 4.413808D-01

 Vector  331  Occ=0.000000D+00  E= 4.427238D-01

 Vector  332  Occ=0.000000D+00  E= 4.488288D-01

 Vector  333  Occ=0.000000D+00  E= 4.508434D-01

 Vector  334  Occ=0.000000D+00  E= 4.527031D-01

 Vector  335  Occ=0.000000D+00  E= 4.568917D-01

 Vector  336  Occ=0.000000D+00  E= 4.625729D-01

 Vector  337  Occ=0.000000D+00  E= 4.666627D-01

 Vector  338  Occ=0.000000D+00  E= 4.679933D-01

 Vector  339  Occ=0.000000D+00  E= 4.724397D-01

 Vector  340  Occ=0.000000D+00  E= 4.759595D-01

 Vector  341  Occ=0.000000D+00  E= 4.796408D-01

 Vector  342  Occ=0.000000D+00  E= 4.828081D-01

 Vector  343  Occ=0.000000D+00  E= 4.837273D-01

 Vector  344  Occ=0.000000D+00  E= 4.873010D-01

 Vector  345  Occ=0.000000D+00  E= 4.914401D-01

 Vector  346  Occ=0.000000D+00  E= 4.922063D-01

 Vector  347  Occ=0.000000D+00  E= 4.988564D-01

 Vector  348  Occ=0.000000D+00  E= 5.032216D-01

         Total DFT energy =  -1625.953731995415
@   11   -1625.95373200 -6.3D-07  0.00015  0.00003  0.00023  0.00126  49174.8
@   11   -1625.95373200 -6.3D-07  0.00015  0.00003  0.00023  0.00126  49174.8

 Output coordinates in angstroms (scale by  1.889725989 to convert to a.u.)

  No.       Tag          Charge          X              Y              Z
 ---- ---------------- ---------- -------------- -------------- --------------
    1 Fe                  26.0000     0.03630623     1.28087575     0.31811466
    2 B                    5.0000    -0.27209791    -1.83146312    -0.05736696
    3 C                    6.0000    -1.96028533     0.60650557     3.49307775
    4 H                    1.0000    -1.41352747    -0.28780408     3.80628174
    5 H                    1.0000    -2.76266119     0.78682573     4.21637455
    6 H                    1.0000    -1.26964158     1.44960462     3.52497969
    7 C                    6.0000    -2.53541027     0.41822436     2.09060973
    8 C                    6.0000    -3.38214672     1.60729978     1.66796265
    9 H                    1.0000    -2.81021877     2.53593895     1.72776994
   10 H                    1.0000    -4.25531556     1.71203357     2.32000614
   11 H                    1.0000    -3.73531962     1.48853540     0.63992260
   12 C                    6.0000    -3.31016405    -0.90394791     1.99536861
   13 H                    1.0000    -3.64476249    -1.29240596     2.95838849
   14 H                    1.0000    -4.16455545    -0.84204337     1.31199006
   15 C                    6.0000    -1.38640359    -1.10347950     0.88454521
   16 C                    6.0000     0.75508191     1.52663397    -3.30266200
   17 H                    1.0000     0.93676369     2.41811942    -2.69866082
   18 H                    1.0000     0.65100446     1.84251111    -4.34620054
   19 H                    1.0000     1.63217027     0.87762999    -3.22718108
   20 C                    6.0000    -0.49743747     0.79496562    -2.83786299
   21 C                    6.0000    -1.71990943     1.70333751    -2.90976749
   22 H                    1.0000    -2.61336228     1.17973166    -2.55766704
   23 H                    1.0000    -1.89783317     2.03030756    -3.93963577
   24 H                    1.0000    -1.57716639     2.59527737    -2.29440927
   25 C                    6.0000    -0.71514797    -0.51905428    -3.61775417
   26 H                    1.0000    -1.69638418    -0.57920053    -4.09573549
   27 H                    1.0000     0.05855560    -0.70583479    -4.36690461
   28 C                    6.0000    -0.41272669    -0.98374017    -1.44054816
   29 C                    6.0000     3.34306960     0.67943763     2.24537660
   30 H                    1.0000     3.23287903     1.74366218     2.02932706
   31 H                    1.0000     4.37531495     0.51419143     2.57196778
   32 H                    1.0000     2.67749260     0.43251786     3.07643139
   33 C                    6.0000     3.03052213    -0.17739717     1.02838038
   34 C                    6.0000     3.84456346     0.26365790    -0.18656587
   35 H                    1.0000     3.68138283    -0.41755163    -1.02687278
   36 H                    1.0000     4.91529792     0.27352489     0.04334320
   37 H                    1.0000     3.55228155     1.26552890    -0.50925874
   38 C                    6.0000     3.24735217    -1.66988799     1.32723657
   39 H                    1.0000     4.14377616    -2.08905232     0.86631835
   40 H                    1.0000     3.26168359    -1.88426298     2.40161955
   41 C                    6.0000     1.19302658    -1.36636039     0.50329748
   42 C                    6.0000    -0.44564163    -3.43379483    -0.07652334
   43 C                    6.0000    -0.69814340    -4.20793683    -1.21444776
   44 H                    1.0000    -0.78537691    -3.72753317    -2.18169045
   45 C                    6.0000    -0.84371206    -5.59254651    -1.14437966
   46 H                    1.0000    -1.03958990    -6.15807163    -2.05217138
   47 C                    6.0000    -0.74052218    -6.24994566     0.07359840
   48 H                    1.0000    -0.85431981    -7.32925610     0.13008325
   49 C                    6.0000    -0.48903172    -5.50594977     1.22249592
   50 H                    1.0000    -0.40502796    -6.00281731     2.18587852
   51 C                    6.0000    -0.34603330    -4.12764432     1.13918947
   52 H                    1.0000    -0.14992649    -3.57399928     2.05518342
   53 C                    6.0000     0.25873281     2.73590746     1.67818586
   54 H                    1.0000    -0.64185831     3.03803941     2.21598860
   55 H                    1.0000     1.09080193     2.60011074     2.37013786
   56 C                    6.0000     0.54268509     3.57743044     0.52308707
   57 C                    6.0000    -0.48780769     4.27040421    -0.16099939
   58 H                    1.0000    -1.49099712     4.26173916     0.25919432
   59 C                    6.0000    -0.23419368     5.00346119    -1.30869658
   60 H                    1.0000    -1.04547490     5.54521058    -1.78776717
   61 C                    6.0000     1.05321790     5.06550972    -1.84280723
   62 H                    1.0000     1.25085534     5.64968216    -2.73611754
   63 C                    6.0000     2.07787093     4.37091976    -1.21240036
   64 H                    1.0000     3.08745989     4.41186095    -1.61255419
   65 C                    6.0000     1.82815221     3.63094085    -0.06108699
   66 H                    1.0000     2.65300831     3.14239635     0.44770079
   67 N                    7.0000    -1.43585006     0.16144945     1.13369294
   68 N                    7.0000    -0.31783301     0.29840200    -1.45955467
   69 N                    7.0000     1.59421805    -0.15331447     0.67439393
   70 O                    8.0000    -0.63816193    -1.56012869    -2.63370550
   71 O                    8.0000    -2.36943776    -1.83076422     1.43728411
   72 O                    8.0000     2.10426081    -2.32003730     0.76308125

 Total times  cpu:    47944.3s     wall:    49174.8s
