============================== echo of input deck ==============================
echo

start feopt52_6311+g-star

geometry units angstroms noautosym noautoz
Fe	0.03630623	1.28087575	0.31811466
B	-0.27209791	-1.83146312	-0.05736696
C	-1.96028533	0.60650557	3.49307775
H	-1.41352747	-0.28780408	3.80628174
H	-2.76266119	0.78682573	4.21637455
H	-1.26964158	1.44960462	3.52497969
C	-2.53541027	0.41822436	2.09060973
C	-3.38214672	1.60729978	1.66796265
H	-2.81021877	2.53593895	1.72776994
H	-4.25531556	1.71203357	2.32000614
H	-3.73531962	1.4885354	0.6399226
C	-3.31016405	-0.90394791	1.99536861
H	-3.64476249	-1.29240596	2.95838849
H	-4.16455545	-0.84204337	1.31199006
C	-1.38640359	-1.1034795	0.88454521
C	0.75508191	1.52663397	-3.302662
H	0.93676369	2.41811942	-2.69866082
H	0.65100446	1.84251111	-4.34620054
H	1.63217027	0.87762999	-3.22718108
C	-0.49743747	0.79496562	-2.83786299
C	-1.71990943	1.70333751	-2.90976749
H	-2.61336228	1.17973166	-2.55766704
H	-1.89783317	2.03030756	-3.93963577
H	-1.57716639	2.59527737	-2.29440927
C	-0.71514797	-0.51905428	-3.61775417
H	-1.69638418	-0.57920053	-4.09573549
H	0.0585556	-0.70583479	-4.36690461
C	-0.41272669	-0.98374017	-1.44054816
C	3.3430696	0.67943763	2.2453766
H	3.23287903	1.74366218	2.02932706
H	4.37531495	0.51419143	2.57196778
H	2.6774926	0.43251786	3.07643139
C	3.03052213	-0.17739717	1.02838038
C	3.84456346	0.2636579	-0.18656587
H	3.68138283	-0.41755163	-1.02687278
H	4.91529792	0.27352489	0.0433432
H	3.55228155	1.2655289	-0.50925874
C	3.24735217	-1.66988799	1.32723657
H	4.14377616	-2.08905232	0.86631835
H	3.26168359	-1.88426298	2.40161955
C	1.19302658	-1.36636039	0.50329748
C	-0.44564163	-3.43379483	-0.07652334
C	-0.6981434	-4.20793683	-1.21444776
H	-0.78537691	-3.72753317	-2.18169045
C	-0.84371206	-5.59254651	-1.14437966
H	-1.0395899	-6.15807163	-2.05217138
C	-0.74052218	-6.24994566	0.0735984
H	-0.85431981	-7.3292561	0.13008325
C	-0.48903172	-5.50594977	1.22249592
H	-0.40502796	-6.00281731	2.18587852
C	-0.3460333	-4.12764432	1.13918947
H	-0.14992649	-3.57399928	2.05518342
C	0.25873281	2.73590746	1.67818586
H	-0.64185831	3.03803941	2.2159886
H	1.09080193	2.60011074	2.37013786
C	0.54268509	3.57743044	0.52308707
C	-0.48780769	4.27040421	-0.16099939
H	-1.49099712	4.26173916	0.25919432
C	-0.23419368	5.00346119	-1.30869658
H	-1.0454749	5.54521058	-1.78776717
C	1.0532179	5.06550972	-1.84280723
H	1.25085534	5.64968216	-2.73611754
C	2.07787093	4.37091976	-1.21240036
H	3.08745989	4.41186095	-1.61255419
C	1.82815221	3.63094085	-0.06108699
H	2.65300831	3.14239635	0.44770079
N	-1.43585006	0.16144945	1.13369294
N	-0.31783301	0.298402	-1.45955467
N	1.59421805	-0.15331447	0.67439393
O	-0.63816193	-1.56012869	-2.6337055
O	-2.36943776	-1.83076422	1.43728411
O	2.10426081	-2.3200373	0.76308125
end

basis
 Fe library "Stuttgart RSC 1997 ECP"
 B library 6-311+g*
 C library 6-311+g*
 O library 6-311+g*
 N library 6-311+g*
 H library 6-311+g*
end

ecp
 Fe library "Stuttgart RSC 1997 ECP"
end

scf
 triplet
 direct
 maxiter 200
 thresh 1.0e-6
 tol2e 1.0e-9
 vectors output fescf_opt.movecs
end

task scf energy

dft
 direct
 grid fine
 xc pbe0
 rodft
 cgmin
 mult 3
 maxiter 200
 vectors input fescf_opt.movecs output feopt52_6311+g-star.movecs
end

driver
 maxiter 200
end

task dft optimize
================================================================================

         Total SCF energy =  -1617.288441144243

       Multipole analysis of the density wrt the origin
       ------------------------------------------------

     L   x y z        total         open         nuclear
     -   - - -        -----         ----         -------
     0   0 0 0     -0.000000     -2.000000    270.000000

     1   1 0 0     -0.051370     -0.116489     -0.685733
     1   0 1 0      1.268563     -4.876811    -24.205945
     1   0 0 1     -0.536986     -1.205892     -6.010235

     2   2 0 0   -153.910588     -1.510969   3379.613002
     2   1 1 0     -5.650041     -0.053349    693.818250
     2   1 0 1     -0.123317     -0.052001   -180.226918
     2   0 2 0   -189.712129    -13.377906   7799.132766
     2   0 1 1     -7.797169     -2.557106   -619.875131

         Total DFT energy =    -1625.953731359505
@ Step       Energy      Delta E   Gmax     Grms     Xrms     Xmax   Walltime
@ ---- ---------------- -------- -------- -------- -------- -------- --------
@    0   -1625.95373136  0.0D+00  0.00298  0.00042  0.00000  0.00000  30565.6
         Total DFT energy =    -1625.953581537771
         Total DFT energy =    -1625.953721773949
@    1   -1625.95372177  9.6D-06  0.00071  0.00015  0.00077  0.00492  34419.1
         Total DFT energy =    -1625.953688220515
         Total DFT energy =    -1625.953724577544
@    2   -1625.95372458 -2.8D-06  0.00068  0.00013  0.00039  0.00296  38137.2
         Total DFT energy =    -1625.953712290737
         Total DFT energy =    -1625.953726451031
@    3   -1625.95372645 -1.9D-06  0.00052  0.00010  0.00031  0.00243  40939.2
         Total DFT energy =    -1625.953725535780
         Total DFT energy =  -1625.953725535780
@    4   -1625.95372554  9.2D-07  0.00060  0.00012  0.00084  0.00615  42329.9
         Total DFT energy =    -1625.953725863965
         Total DFT energy =  -1625.953725863965
@    5   -1625.95372586 -3.3D-07  0.00053  0.00012  0.00072  0.00643  43582.8
         Total DFT energy =    -1625.953724954743
         Total DFT energy =  -1625.953724954743
@    6   -1625.95372495  9.1D-07  0.00041  0.00011  0.00113  0.00664  45520.8
         Total DFT energy =    -1625.953729273069
         Total DFT energy =  -1625.953729273069
@    7   -1625.95372927 -4.3D-06  0.00041  0.00007  0.00080  0.00555  46909.3
         Total DFT energy =    -1625.953726753902
         Total DFT energy =  -1625.953726753902
@    8   -1625.95372675  2.5D-06  0.00070  0.00011  0.00063  0.00404  48180.6
         Total DFT energy =    -1625.953730832840
         Total DFT energy =  -1625.953730832840
@    9   -1625.95373083 -4.1D-06  0.00027  0.00005  0.00055  0.00361  49447.1
         Total DFT energy =    -1625.953729714724
         Total DFT energy =  -1625.953729714724
@   10   -1625.95372971  1.1D-06  0.00039  0.00006  0.00048  0.00233  50839.0
         Total DFT energy =    -1625.953731366089

                       DFT Final Molecular Orbital Analysis
                       ------------------------------------

 Vector   40  Occ=2.000000D+00  E=-1.130380D+00

 Vector  269  Occ=0.000000D+00  E= 2.789116D-01

 Vector  270  Occ=0.000000D+00  E= 2.810246D-01

 Vector  271  Occ=0.000000D+00  E= 2.828235D-01

 Vector  272  Occ=0.000000D+00  E= 2.843459D-01

 Vector  273  Occ=0.000000D+00  E= 2.858219D-01

 Vector  274  Occ=0.000000D+00  E= 2.885204D-01

 Vector  275  Occ=0.000000D+00  E= 2.903131D-01

 Vector  276  Occ=0.000000D+00  E= 2.912680D-01

 Vector  277  Occ=0.000000D+00  E= 2.923818D-01

 Vector  278  Occ=0.000000D+00  E= 2.950049D-01

 Vector  279  Occ=0.000000D+00  E= 2.967493D-01

 Vector  280  Occ=0.000000D+00  E= 3.027468D-01

 Vector  281  Occ=0.000000D+00  E= 3.036309D-01

 Vector  282  Occ=0.000000D+00  E= 3.057624D-01

 Vector  283  Occ=0.000000D+00  E= 3.085216D-01

 Vector  284  Occ=0.000000D+00  E= 3.097945D-01

 Vector  285  Occ=0.000000D+00  E= 3.128628D-01

 Vector  286  Occ=0.000000D+00  E= 3.146417D-01

 Vector  287  Occ=0.000000D+00  E= 3.166173D-01

 Vector  288  Occ=0.000000D+00  E= 3.217308D-01

 Vector  289  Occ=0.000000D+00  E= 3.237602D-01

 Vector  290  Occ=0.000000D+00  E= 3.258176D-01

 Vector  291  Occ=0.000000D+00  E= 3.267580D-01

 Vector  292  Occ=0.000000D+00  E= 3.273217D-01

 Vector  293  Occ=0.000000D+00  E= 3.310951D-01

 Vector  294  Occ=0.000000D+00  E= 3.341523D-01

 Vector  295  Occ=0.000000D+00  E= 3.368550D-01

 Vector  296  Occ=0.000000D+00  E= 3.377697D-01

 Vector  297  Occ=0.000000D+00  E= 3.399169D-01

 Vector  298  Occ=0.000000D+00  E= 3.437868D-01

 Vector  299  Occ=0.000000D+00  E= 3.447107D-01

 Vector  300  Occ=0.000000D+00  E= 3.473185D-01

 Vector  301  Occ=0.000000D+00  E= 3.475079D-01

 Vector  302  Occ=0.000000D+00  E= 3.506268D-01

 Vector  303  Occ=0.000000D+00  E= 3.523067D-01

 Vector  304  Occ=0.000000D+00  E= 3.549486D-01

 Vector  305  Occ=0.000000D+00  E= 3.586189D-01

 Vector  306  Occ=0.000000D+00  E= 3.595685D-01

 Vector  307  Occ=0.000000D+00  E= 3.610670D-01

 Vector  308  Occ=0.000000D+00  E= 3.663460D-01

 Vector  309  Occ=0.000000D+00  E= 3.685939D-01

 Vector  310  Occ=0.000000D+00  E= 3.695048D-01

 Vector  311  Occ=0.000000D+00  E= 3.770788D-01

 Vector  312  Occ=0.000000D+00  E= 3.783805D-01

 Vector  313  Occ=0.000000D+00  E= 3.801163D-01

 Vector  314  Occ=0.000000D+00  E= 3.827995D-01

 Vector  315  Occ=0.000000D+00  E= 3.864868D-01

 Vector  316  Occ=0.000000D+00  E= 3.886860D-01

 Vector  317  Occ=0.000000D+00  E= 3.897064D-01

 Vector  318  Occ=0.000000D+00  E= 3.938241D-01

 Vector  319  Occ=0.000000D+00  E= 3.993242D-01

 Vector  320  Occ=0.000000D+00  E= 4.028393D-01

 Vector  321  Occ=0.000000D+00  E= 4.049345D-01

 Vector  322  Occ=0.000000D+00  E= 4.073684D-01

 Vector  323  Occ=0.000000D+00  E= 4.110574D-01

 Vector  324  Occ=0.000000D+00  E= 4.131356D-01

 Vector  325  Occ=0.000000D+00  E= 4.178310D-01

 Vector  326  Occ=0.000000D+00  E= 4.199882D-01

 Vector  327  Occ=0.000000D+00  E= 4.220063D-01

 Vector  328  Occ=0.000000D+00  E= 4.271867D-01

 Vector  329  Occ=0.000000D+00  E= 4.300978D-01

 Vector  330  Occ=0.000000D+00  E= 4.413571D-01

 Vector  331  Occ=0.000000D+00  E= 4.427343D-01

 Vector  332  Occ=0.000000D+00  E= 4.488646D-01

 Vector  333  Occ=0.000000D+00  E= 4.508651D-01

 Vector  334  Occ=0.000000D+00  E= 4.526883D-01

 Vector  335  Occ=0.000000D+00  E= 4.568674D-01

 Vector  336  Occ=0.000000D+00  E= 4.626104D-01

 Vector  337  Occ=0.000000D+00  E= 4.666292D-01

 Vector  338  Occ=0.000000D+00  E= 4.679978D-01

 Vector  339  Occ=0.000000D+00  E= 4.724514D-01

 Vector  340  Occ=0.000000D+00  E= 4.759739D-01

 Vector  341  Occ=0.000000D+00  E= 4.796070D-01

 Vector  342  Occ=0.000000D+00  E= 4.827885D-01

 Vector  343  Occ=0.000000D+00  E= 4.837232D-01

 Vector  344  Occ=0.000000D+00  E= 4.873070D-01

 Vector  345  Occ=0.000000D+00  E= 4.914565D-01

 Vector  346  Occ=0.000000D+00  E= 4.921927D-01

 Vector  347  Occ=0.000000D+00  E= 4.988759D-01

 Vector  348  Occ=0.000000D+00  E= 5.032842D-01

         Total DFT energy =  -1625.953731366089
@   11   -1625.95373137 -1.7D-06  0.00025  0.00004  0.00026  0.00133  52248.3
@   11   -1625.95373137 -1.7D-06  0.00025  0.00004  0.00026  0.00133  52248.3

 Output coordinates in angstroms (scale by  1.889725989 to convert to a.u.)

  No.       Tag          Charge          X              Y              Z
 ---- ---------------- ---------- -------------- -------------- --------------
    1 Fe                  26.0000     0.03574866     1.28072286     0.31834605
    2 B                    5.0000    -0.27214580    -1.83167151    -0.05765354
    3 C                    6.0000    -1.96079551     0.60611066     3.49356577
    4 H                    1.0000    -1.41480757    -0.28856971     3.80712952
    5 H                    1.0000    -2.76340765     0.78711732     4.21637801
    6 H                    1.0000    -1.26938715     1.44862285     3.52560157
    7 C                    6.0000    -2.53500276     0.41813120     2.09067786
    8 C                    6.0000    -3.38099024     1.60736325     1.66718317
    9 H                    1.0000    -2.80850191     2.53567654     1.72647565
   10 H                    1.0000    -4.25394387     1.71303722     2.31944034
   11 H                    1.0000    -3.73449960     1.48817986     0.63936308
   12 C                    6.0000    -3.31022218    -0.90387643     1.99487534
   13 H                    1.0000    -3.64473687    -1.29244802     2.95794754
   14 H                    1.0000    -4.16475941    -0.84137710     1.31180516
   15 C                    6.0000    -1.38605147    -1.10400327     0.88488223
   16 C                    6.0000     0.75502735     1.52604504    -3.30241891
   17 H                    1.0000     0.93732418     2.41708672    -2.69796073
   18 H                    1.0000     0.65098570     1.84270394    -4.34574596
   19 H                    1.0000     1.63176914     0.87651492    -3.22749696
   20 C                    6.0000    -0.49796687     0.79501304    -2.83782849
   21 C                    6.0000    -1.71988073     1.70402969    -2.90980509
   22 H                    1.0000    -2.61372244     1.18089588    -2.55801386
   23 H                    1.0000    -1.89729595     2.03127746    -3.93968083
   24 H                    1.0000    -1.57671104     2.59575551    -2.29423873
   25 C                    6.0000    -0.71631453    -0.51893998    -3.61771545
   26 H                    1.0000    -1.69792811    -0.57882976    -4.09496374
   27 H                    1.0000     0.05679908    -0.70582845    -4.36744811
   28 C                    6.0000    -0.41323207    -0.98386403    -1.44067336
   29 C                    6.0000     3.34243601     0.67988094     2.24515178
   30 H                    1.0000     3.23143498     1.74403663     2.02916500
   31 H                    1.0000     4.37490190     0.51539231     2.57137840
   32 H                    1.0000     2.67724815     0.43244617     3.07636306
   33 C                    6.0000     3.03007284    -0.17693331     1.02809952
   34 C                    6.0000     3.84432998     0.26409618    -0.18668774
   35 H                    1.0000     3.68148211    -0.41728949    -1.02692381
   36 H                    1.0000     4.91502139     0.27403842     0.04344163
   37 H                    1.0000     3.55203143     1.26588950    -0.50956497
   38 C                    6.0000     3.24705152    -1.66939121     1.32716839
   39 H                    1.0000     4.14372982    -2.08848002     0.86662204
   40 H                    1.0000     3.26104425    -1.88370177     2.40156687
   41 C                    6.0000     1.19293143    -1.36635840     0.50285674
   42 C                    6.0000    -0.44553424    -3.43401126    -0.07679179
   43 C                    6.0000    -0.69789898    -4.20831301    -1.21463896
   44 H                    1.0000    -0.78505260    -3.72804025    -2.18196275
   45 C                    6.0000    -0.84321772    -5.59294951    -1.14440775
   46 H                    1.0000    -1.03910267    -6.15858788    -2.05212734
   47 C                    6.0000    -0.74002115    -6.25016221     0.07367382
   48 H                    1.0000    -0.85379669    -7.32946294     0.13034627
   49 C                    6.0000    -0.48874606    -5.50598487     1.22250367
   50 H                    1.0000    -0.40453842    -6.00273533     2.18592508
   51 C                    6.0000    -0.34576672    -4.12770150     1.13899313
   52 H                    1.0000    -0.14987066    -3.57389554     2.05493656
   53 C                    6.0000     0.25876497     2.73604972     1.67802835
   54 H                    1.0000    -0.64206212     3.03832052     2.21532297
   55 H                    1.0000     1.09034443     2.60002760     2.37042573
   56 C                    6.0000     0.54280880     3.57766630     0.52295083
   57 C                    6.0000    -0.48759887     4.27052913    -0.16119839
   58 H                    1.0000    -1.49079540     4.26172782     0.25893381
   59 C                    6.0000    -0.23363865     5.00400399    -1.30852068
   60 H                    1.0000    -1.04477003     5.54590048    -1.78766601
   61 C                    6.0000     1.05366101     5.06538391    -1.84299709
   62 H                    1.0000     1.25145772     5.64975225    -2.73614016
   63 C                    6.0000     2.07822374     4.37092359    -1.21234445
   64 H                    1.0000     3.08783029     4.41154544    -1.61250451
   65 C                    6.0000     1.82827288     3.63089198    -0.06111340
   66 H                    1.0000     2.65299144     3.14218143     0.44776922
   67 N                    7.0000    -1.43449704     0.16073517     1.13525385
   68 N                    7.0000    -0.31877165     0.29828982    -1.45946764
   69 N                    7.0000     1.59377987    -0.15310319     0.67404118
   70 O                    8.0000    -0.63877057    -1.56013187    -2.63385385
   71 O                    8.0000    -2.37005164    -1.83093549     1.43635573
   72 O                    8.0000     2.10431847    -2.31985894     0.76271934

 Total times  cpu:    50972.7s     wall:    52248.3s
