============================== echo of input deck ==============================
echo

start feopt35_6311+g-star

geometry units angstroms noautosym noautoz
Fe	0.03986672	1.30195014	0.32123861
B	-0.28026962	-1.80674963	-0.05980756
C	-1.97499168	0.62375052	3.49281144
H	-1.43438078	-0.27467815	3.80493473
H	-2.78012234	0.8050828	4.21277201
H	-1.28004312	1.46302356	3.53210947
C	-2.544015	0.44423746	2.08657132
C	-3.3827282	1.63961274	1.66531244
H	-2.80739483	2.56546411	1.73569537
H	-4.26029225	1.74425401	2.31152242
H	-3.72876909	1.52887214	0.63395628
C	-3.32392845	-0.87394836	1.98138265
H	-3.66838125	-1.26374626	2.94040837
H	-4.17227932	-0.80603392	1.29104951
C	-1.39455578	-1.07781292	0.88174265
C	0.75332411	1.5556269	-3.29977212
H	0.94097491	2.4429051	-2.69131773
H	0.64595283	1.87827022	-4.34091686
H	1.62826772	0.90292302	-3.23179483
C	-0.5003616	0.82662533	-2.83370581
C	-1.71931926	1.74019593	-2.89942016
H	-2.6138611	1.2196505	-2.54558874
H	-1.89905231	2.0705366	-3.92790305
H	-1.5706184	2.62995455	-2.28237218
C	-0.72567271	-0.48447291	-3.61661305
H	-1.70756002	-0.53823666	-4.09395997
H	0.04649808	-0.67365262	-4.36676887
C	-0.42027205	-0.95644942	-1.44144399
C	3.35130871	0.69300223	2.23420109
H	3.24055166	1.75727007	2.01889292
H	4.38558352	0.52713031	2.55396607
H	2.69103464	0.44648643	3.06957624
C	3.03026607	-0.1631533	1.01897966
C	3.84079187	0.27530101	-0.19937804
H	3.67104702	-0.40441712	-1.03960391
H	4.91256047	0.28033631	0.02573874
H	3.55154841	1.2788694	-0.51964727
C	3.24255216	-1.65627867	1.31722432
H	4.13712187	-2.07866796	0.85565013
H	3.25690809	-1.87068874	2.39159598
C	1.18719135	-1.34604146	0.49899543
C	-0.45475466	-3.40888244	-0.08001962
C	-0.70363496	-4.18251501	-1.21894807
H	-0.78971184	-3.70137874	-2.18599514
C	-0.84650456	-5.56750602	-1.15013531
H	-1.03955735	-6.13278349	-2.05866533
C	-0.74425919	-6.22556627	0.06756885
H	-0.8560431	-7.3051362	0.12312296
C	-0.49645705	-5.48198825	1.21755834
H	-0.41271475	-5.97961623	2.18059832
C	-0.35608109	-4.10335422	1.13551862
H	-0.16224438	-3.55002743	2.05224823
C	0.27205176	2.7483884	1.68954671
H	-0.62596163	3.04489576	2.23475942
H	1.10889648	2.61072173	2.37506136
C	0.54573424	3.5960474	0.53668192
C	-0.49202587	4.28713281	-0.13818098
H	-1.49278219	4.2703442	0.28740211
C	-0.24858885	5.02830027	-1.28305943
H	-1.06516425	5.56925609	-1.75403386
C	1.03534787	5.10003409	-1.82384337
H	1.22506593	5.69099649	-2.71442044
C	2.06706593	4.40684738	-1.20304119
H	3.0742357	4.45531418	-1.60841462
C	1.82773335	3.65903321	-0.0547242
H	2.65801079	3.1711287	0.44602704
N	-1.44108758	0.18671472	1.13358356
N	-0.31851513	0.32521469	-1.45751511
N	1.59260303	-0.13437019	0.67064269
O	-0.6534607	-1.52850944	-2.63515845
O	-2.38255722	-1.80330726	1.42842439
O	2.09673627	-2.30257963	0.75416932
end

basis
 Fe library "Stuttgart RSC 1997 ECP"
 B library 6-311+g*
 C library 6-311+g*
 O library 6-311+g*
 N library 6-311+g*
 H library 6-311+g*
end

ecp
 Fe library "Stuttgart RSC 1997 ECP"
end

scf
 triplet
 direct
 maxiter 200
 thresh 1.0e-6
 tol2e 1.0e-9
 vectors output fescf_opt.movecs
end

task scf energy

dft
 direct
 grid fine
 xc pbe0
 rodft
 cgmin
 mult 3
 maxiter 200
 vectors input fescf_opt.movecs output feopt35_6311+g-star.movecs
end

driver
 maxiter 200
end

task dft optimize
================================================================================

         Total SCF energy =  -1617.288367491878

       Multipole analysis of the density wrt the origin
       ------------------------------------------------

     L   x y z        total         open         nuclear
     -   - - -        -----         ----         -------
     0   0 0 0     -0.000000     -2.000000    270.000000

     1   1 0 0     -0.048449     -0.148517     -0.840396
     1   0 1 0      1.268108     -4.865972    -24.148654
     1   0 0 1     -0.541429     -1.217377     -6.066064

     2   2 0 0   -153.871720     -1.515895   3387.010086
     2   1 1 0     -5.759510     -0.137520    689.890670
     2   1 0 1     -0.180859     -0.064276   -180.532636
     2   0 2 0   -189.627850    -13.331379   7802.608396
     2   0 1 1     -7.858093     -2.575946   -608.979204

         Total DFT energy =    -1625.953734332386
@ Step       Energy      Delta E   Gmax     Grms     Xrms     Xmax   Walltime
@ ---- ---------------- -------- -------- -------- -------- -------- --------
@    0   -1625.95373433  0.0D+00  0.00326  0.00044  0.00000  0.00000  27918.1
         Total DFT energy =    -1625.953648040926
         Total DFT energy =    -1625.953726755681
@    1   -1625.95372676  7.6D-06  0.00080  0.00014  0.00081  0.00455  31925.8
         Total DFT energy =    -1625.953700376210
         Total DFT energy =    -1625.953729383570
@    2   -1625.95372938 -2.6D-06  0.00059  0.00011  0.00033  0.00275  34756.3
         Total DFT energy =    -1625.953724108935
         Total DFT energy =    -1625.953730952716
@    3   -1625.95373095 -1.6D-06  0.00050  0.00009  0.00029  0.00225  36903.6
         Total DFT energy =    -1625.953726971784
         Total DFT energy =  -1625.953726971784
@    4   -1625.95372697  4.0D-06  0.00053  0.00012  0.00103  0.00759  38981.6
         Total DFT energy =    -1625.953732409553
         Total DFT energy =    -1625.953732845643
@    5   -1625.95373285 -5.9D-06  0.00036  0.00007  0.00064  0.00440  41134.2
         Total DFT energy =    -1625.953727437169
         Total DFT energy =    -1625.953734129259
@    6   -1625.95373413 -1.3D-06  0.00027  0.00004  0.00033  0.00235  44085.6
         Total DFT energy =    -1625.953734527372

                       DFT Final Molecular Orbital Analysis
                       ------------------------------------

 Vector   40  Occ=2.000000D+00  E=-1.130311D+00

 Vector  269  Occ=0.000000D+00  E= 2.789093D-01

 Vector  270  Occ=0.000000D+00  E= 2.808103D-01

 Vector  271  Occ=0.000000D+00  E= 2.828610D-01

 Vector  272  Occ=0.000000D+00  E= 2.844421D-01

 Vector  273  Occ=0.000000D+00  E= 2.858393D-01

 Vector  274  Occ=0.000000D+00  E= 2.884239D-01

 Vector  275  Occ=0.000000D+00  E= 2.904312D-01

 Vector  276  Occ=0.000000D+00  E= 2.913490D-01

 Vector  277  Occ=0.000000D+00  E= 2.924570D-01

 Vector  278  Occ=0.000000D+00  E= 2.951248D-01

 Vector  279  Occ=0.000000D+00  E= 2.969087D-01

 Vector  280  Occ=0.000000D+00  E= 3.026868D-01

 Vector  281  Occ=0.000000D+00  E= 3.035612D-01

 Vector  282  Occ=0.000000D+00  E= 3.057917D-01

 Vector  283  Occ=0.000000D+00  E= 3.085799D-01

 Vector  284  Occ=0.000000D+00  E= 3.099196D-01

 Vector  285  Occ=0.000000D+00  E= 3.127887D-01

 Vector  286  Occ=0.000000D+00  E= 3.146393D-01

 Vector  287  Occ=0.000000D+00  E= 3.165922D-01

 Vector  288  Occ=0.000000D+00  E= 3.213687D-01

 Vector  289  Occ=0.000000D+00  E= 3.238767D-01

 Vector  290  Occ=0.000000D+00  E= 3.258722D-01

 Vector  291  Occ=0.000000D+00  E= 3.266835D-01

 Vector  292  Occ=0.000000D+00  E= 3.273541D-01

 Vector  293  Occ=0.000000D+00  E= 3.310361D-01

 Vector  294  Occ=0.000000D+00  E= 3.341011D-01

 Vector  295  Occ=0.000000D+00  E= 3.369964D-01

 Vector  296  Occ=0.000000D+00  E= 3.378872D-01

 Vector  297  Occ=0.000000D+00  E= 3.395667D-01

 Vector  298  Occ=0.000000D+00  E= 3.436816D-01

 Vector  299  Occ=0.000000D+00  E= 3.446703D-01

 Vector  300  Occ=0.000000D+00  E= 3.472319D-01

 Vector  301  Occ=0.000000D+00  E= 3.475548D-01

 Vector  302  Occ=0.000000D+00  E= 3.507376D-01

 Vector  303  Occ=0.000000D+00  E= 3.523780D-01

 Vector  304  Occ=0.000000D+00  E= 3.549825D-01

 Vector  305  Occ=0.000000D+00  E= 3.587404D-01

 Vector  306  Occ=0.000000D+00  E= 3.596153D-01

 Vector  307  Occ=0.000000D+00  E= 3.610416D-01

 Vector  308  Occ=0.000000D+00  E= 3.664710D-01

 Vector  309  Occ=0.000000D+00  E= 3.682413D-01

 Vector  310  Occ=0.000000D+00  E= 3.692100D-01

 Vector  311  Occ=0.000000D+00  E= 3.770814D-01

 Vector  312  Occ=0.000000D+00  E= 3.784991D-01

 Vector  313  Occ=0.000000D+00  E= 3.802139D-01

 Vector  314  Occ=0.000000D+00  E= 3.828661D-01

 Vector  315  Occ=0.000000D+00  E= 3.863414D-01

 Vector  316  Occ=0.000000D+00  E= 3.887653D-01

 Vector  317  Occ=0.000000D+00  E= 3.897890D-01

 Vector  318  Occ=0.000000D+00  E= 3.940195D-01

 Vector  319  Occ=0.000000D+00  E= 3.990603D-01

 Vector  320  Occ=0.000000D+00  E= 4.028633D-01

 Vector  321  Occ=0.000000D+00  E= 4.049918D-01

 Vector  322  Occ=0.000000D+00  E= 4.075370D-01

 Vector  323  Occ=0.000000D+00  E= 4.111877D-01

 Vector  324  Occ=0.000000D+00  E= 4.129315D-01

 Vector  325  Occ=0.000000D+00  E= 4.179474D-01

 Vector  326  Occ=0.000000D+00  E= 4.198358D-01

 Vector  327  Occ=0.000000D+00  E= 4.219483D-01

 Vector  328  Occ=0.000000D+00  E= 4.271490D-01

 Vector  329  Occ=0.000000D+00  E= 4.301038D-01

 Vector  330  Occ=0.000000D+00  E= 4.416214D-01

 Vector  331  Occ=0.000000D+00  E= 4.428243D-01

 Vector  332  Occ=0.000000D+00  E= 4.486630D-01

 Vector  333  Occ=0.000000D+00  E= 4.511342D-01

 Vector  334  Occ=0.000000D+00  E= 4.529894D-01

 Vector  335  Occ=0.000000D+00  E= 4.569039D-01

 Vector  336  Occ=0.000000D+00  E= 4.625797D-01

 Vector  337  Occ=0.000000D+00  E= 4.665964D-01

 Vector  338  Occ=0.000000D+00  E= 4.680029D-01

 Vector  339  Occ=0.000000D+00  E= 4.725835D-01

 Vector  340  Occ=0.000000D+00  E= 4.762005D-01

 Vector  341  Occ=0.000000D+00  E= 4.797661D-01

 Vector  342  Occ=0.000000D+00  E= 4.828458D-01

 Vector  343  Occ=0.000000D+00  E= 4.836915D-01

 Vector  344  Occ=0.000000D+00  E= 4.870501D-01

 Vector  345  Occ=0.000000D+00  E= 4.914123D-01

 Vector  346  Occ=0.000000D+00  E= 4.923554D-01

 Vector  347  Occ=0.000000D+00  E= 4.988849D-01

 Vector  348  Occ=0.000000D+00  E= 5.034125D-01

         Total DFT energy =  -1625.953734527372
@    7   -1625.95373453 -4.0D-07  0.00020  0.00004  0.00021  0.00150  45363.6
@    7   -1625.95373453 -4.0D-07  0.00020  0.00004  0.00021  0.00150  45363.6

 Output coordinates in angstroms (scale by  1.889725989 to convert to a.u.)

  No.       Tag          Charge          X              Y              Z
 ---- ---------------- ---------- -------------- -------------- --------------
    1 Fe                  26.0000     0.04491881     1.27742070     0.32245694
    2 B                    5.0000    -0.27562058    -1.83093587    -0.06008864
    3 C                    6.0000    -1.97029098     0.59969022     3.49284186
    4 H                    1.0000    -1.42987793    -0.29869424     3.80535380
    5 H                    1.0000    -2.77572699     0.78113318     4.21241007
    6 H                    1.0000    -1.27545821     1.43905829     3.53219363
    7 C                    6.0000    -2.53872485     0.42018504     2.08646008
    8 C                    6.0000    -3.37754241     1.61540991     1.66509882
    9 H                    1.0000    -2.80230767     2.54132511     1.73525005
   10 H                    1.0000    -4.25501702     1.71987747     2.31139383
   11 H                    1.0000    -3.72360333     1.50473858     0.63375019
   12 C                    6.0000    -3.31884560    -0.89790551     1.98123901
   13 H                    1.0000    -3.66333106    -1.28770248     2.94021078
   14 H                    1.0000    -4.16719669    -0.82980922     1.29086100
   15 C                    6.0000    -1.38920072    -1.10220062     0.88200115
   16 C                    6.0000     0.75788515     1.53133595    -3.30001010
   17 H                    1.0000     0.94575069     2.41852790    -2.69150840
   18 H                    1.0000     0.65074041     1.85400042    -4.34116256
   19 H                    1.0000     1.63257967     0.87828332    -3.23207663
   20 C                    6.0000    -0.49598621     0.80273859    -2.83395482
   21 C                    6.0000    -1.71478729     1.71640999    -2.89999691
   22 H                    1.0000    -2.60939850     1.19594504    -2.54618329
   23 H                    1.0000    -1.89443952     2.04657704    -3.92855449
   24 H                    1.0000    -1.56603003     2.60625573    -2.28309629
   25 C                    6.0000    -0.72136053    -0.50840363    -3.61666764
   26 H                    1.0000    -1.70337020    -0.56225178    -4.09376587
   27 H                    1.0000     0.05062631    -0.69758115    -4.36701225
   28 C                    6.0000    -0.41583349    -0.98001396    -1.44149097
   29 C                    6.0000     3.35534750     0.66916463     2.23389867
   30 H                    1.0000     3.24460416     1.73343938     2.01856449
   31 H                    1.0000     4.38962428     0.50321361     2.55356698
   32 H                    1.0000     2.69507239     0.42258058     3.06925523
   33 C                    6.0000     3.03441979    -0.18694489     1.01867535
   34 C                    6.0000     3.84505529     0.25143052    -0.19957367
   35 H                    1.0000     3.67546652    -0.42826975    -1.03982116
   36 H                    1.0000     4.91678361     0.25646605     0.02578254
   37 H                    1.0000     3.55581995     1.25499761    -0.51992274
   38 C                    6.0000     3.24700009    -1.68004237     1.31693992
   39 H                    1.0000     4.14158416    -2.10225457     0.85530913
   40 H                    1.0000     3.26144038    -1.89448267     2.39133797
   41 C                    6.0000     1.19146234    -1.37019151     0.49868679
   42 C                    6.0000    -0.45007164    -3.43300172    -0.08066555
   43 C                    6.0000    -0.69890002    -4.20674252    -1.21958094
   44 H                    1.0000    -0.78503253    -3.72571334    -2.18667880
   45 C                    6.0000    -0.84178280    -5.59173352    -1.15060019
   46 H                    1.0000    -1.03474386    -6.15715292    -2.05908178
   47 C                    6.0000    -0.73953585    -6.24967499     0.06718462
   48 H                    1.0000    -0.85114397    -7.32925777     0.12285822
   49 C                    6.0000    -0.49185204    -5.50594873     1.21709456
   50 H                    1.0000    -0.40814098    -6.00336817     2.18023152
   51 C                    6.0000    -0.35146464    -4.12733405     1.13488274
   52 H                    1.0000    -0.15780035    -3.57385060     2.05153272
   53 C                    6.0000     0.27594556     2.72443866     1.68944224
   54 H                    1.0000    -0.62196958     3.02135456     2.23451105
   55 H                    1.0000     1.11268062     2.58623056     2.37510902
   56 C                    6.0000     0.55054313     3.57214885     0.53672748
   57 C                    6.0000    -0.48726781     4.26300846    -0.13839532
   58 H                    1.0000    -1.48799258     4.24694490     0.28724900
   59 C                    6.0000    -0.24372877     5.00385469    -1.28338650
   60 H                    1.0000    -1.06032340     5.54451497    -1.75463008
   61 C                    6.0000     1.04019019     5.07530825    -1.82429116
   62 H                    1.0000     1.23016365     5.66612579    -2.71490388
   63 C                    6.0000     2.07181597     4.38227039    -1.20330756
   64 H                    1.0000     3.07897873     4.43077520    -1.60875894
   65 C                    6.0000     1.83241877     3.63438290    -0.05497970
   66 H                    1.0000     2.66281607     3.14745565     0.44648051
   67 N                    7.0000    -1.43529814     0.16227513     1.13413383
   68 N                    7.0000    -0.31446801     0.30169788    -1.45755999
   69 N                    7.0000     1.59673234    -0.15844275     0.67017170
   70 O                    8.0000    -0.64882862    -1.55233310    -2.63514673
   71 O                    8.0000    -2.37792075    -1.82734574     1.42772704
   72 O                    8.0000     2.10117637    -2.32645173     0.75403589

 Total times  cpu:    44471.6s     wall:    45363.6s
