============================== echo of input deck ==============================
echo

start feopt14_6311+g-star

geometry units angstroms noautosym noautoz
Fe	0.02829489	1.26176693	0.3357022
B	-0.23885445	-1.84636446	-0.0668565
C	-1.98845429	0.53238522	3.49631587
H	-1.42450057	-0.35252848	3.80548474
H	-2.79665779	0.69132972	4.21807178
H	-1.31529689	1.38918119	3.53658565
C	-2.55520806	0.34082957	2.0909764
C	-3.42722934	1.51335049	1.67386202
H	-2.87764235	2.45475383	1.74570233
H	-4.30671027	1.59241749	2.32108319
H	-3.77075495	1.39470804	0.64258508
C	-3.29855946	-0.99840631	1.98469939
H	-3.62653024	-1.40107114	2.94420275
H	-4.15238949	-0.95194322	1.29945635
C	-1.36879305	-1.14386805	0.87634487
C	0.78826767	1.5883638	-3.2398524
H	0.90333341	2.48357037	-2.6245115
H	0.71384904	1.90715261	-4.2850034
H	1.69055282	0.97991144	-3.1314419
C	-0.44699096	0.79631963	-2.831791
C	-1.70533019	1.65085413	-2.9410839
H	-2.58849285	1.08205061	-2.6362965
H	-1.85411145	1.98911117	-3.9719184
H	-1.62783067	2.53593434	-2.3047183
C	-0.57694472	-0.51712739	-3.6321808
H	-1.51865212	-0.59734432	-4.1808714
H	0.25402244	-0.68069643	-4.3237235
C	-0.37156835	-0.99191616	-1.4462417
C	3.34018843	0.71386032	2.23486374
H	3.18094744	1.77545647	2.03822699
H	4.3852797	0.58598397	2.53623739
H	2.70311007	0.42571981	3.0749419
C	3.03565829	-0.13178232	1.00861228
C	3.81821737	0.35770545	-0.2081093
H	3.65671101	-0.30576944	-1.0628272
H	4.89213966	0.38761659	0.00437393
H	3.49685264	1.36082492	-0.498256
C	3.29742397	-1.62325266	1.27693421
H	4.19327058	-2.01130104	0.78850806
H	3.34241709	-1.85539976	2.34667053
C	1.22059689	-1.361535	0.49371874
C	-0.40063195	-3.44952244	-0.1005113
C	-0.75303838	-4.20073084	-1.2272951
H	-0.91242852	-3.70219916	-2.1760848
C	-0.90446241	-5.58517858	-1.1703095
H	-1.17781684	-6.13270231	-2.0690664
C	-0.70867101	-6.26534598	0.02362061
H	-0.82516242	-7.34485464	0.06953892
C	-0.36116754	-5.544029	1.16182957
H	-0.2054392	-6.0588556	2.10668312
C	-0.21273449	-4.16542066	1.09160943
H	0.05952305	-3.62982357	1.99872292
C	0.2406135	2.71144225	1.70490438
H	-0.6692282	2.96886337	2.25136841
H	1.07989976	2.60756846	2.39353805
C	0.48220153	3.58740621	0.56357503
C	-0.59096136	4.197622	-0.1315876
H	-1.59643184	4.1005151	0.27189212
C	-0.3817363	4.96447711	-1.2680378
H	-1.22825503	5.44018119	-1.7561879
C	0.90346251	5.14343094	-1.7760962
H	1.06610069	5.75247349	-2.6597927
C	1.97422412	4.5334893	-1.1311923
H	2.98334372	4.66776321	-1.5117053
C	1.76948585	3.76249008	0.00669986
H	2.62487463	3.33729486	0.52320843
N	-1.44808093	0.11767219	1.13451981
N	-0.29931012	0.29161556	-1.4525295
N	1.59530689	-0.14128424	0.674662
O	-0.54499285	-1.56306414	-2.6506416
O	-2.33463548	-1.89869149	1.42296817
O	2.15881593	-2.29488318	0.72771829
end

basis
 Fe library "Stuttgart RSC 1997 ECP"
 B library 6-311+g*
 C library 6-311+g*
 O library 6-311+g*
 N library 6-311+g*
 H library 6-311+g*
end

ecp
 Fe library "Stuttgart RSC 1997 ECP"
end

scf
 triplet
 direct
 maxiter 200
 thresh 1.0e-6
 tol2e 1.0e-9
 vectors output fescf_opt.movecs
end

task scf energy

dft
 direct
 grid fine
 xc pbe0
 rodft
 cgmin
 mult 3
 maxiter 200
 vectors input fescf_opt.movecs output feopt14_6311+g-star.movecs
end

driver
 maxiter 200
end

task dft optimize
================================================================================

         Total SCF energy =  -1617.289685787480

       Multipole analysis of the density wrt the origin
       ------------------------------------------------

     L   x y z        total         open         nuclear
     -   - - -        -----         ----         -------
     0   0 0 0      0.000000     -2.000000    270.000000

     1   1 0 0     -0.013979     -0.085987     -0.509768
     1   0 1 0      1.241225     -4.821400    -23.926384
     1   0 0 1     -0.544348     -1.273446     -6.335669

     2   2 0 0   -153.338416     -1.521902   3369.800009
     2   1 1 0     -4.535449     -0.018552    665.951275
     2   1 0 1      0.201302     -0.011330   -179.685114
     2   0 2 0   -190.084830    -13.118462   7868.058418
     2   0 1 1     -8.176435     -2.673405   -579.002444

         Total DFT energy =    -1625.953656473687
@ Step       Energy      Delta E   Gmax     Grms     Xrms     Xmax   Walltime
@ ---- ---------------- -------- -------- -------- -------- -------- --------
@    0   -1625.95365647  0.0D+00  0.00483  0.00049  0.00000  0.00000  30300.1
         Total DFT energy =    -1625.953554020130
         Total DFT energy =    -1625.953647942487
@    1   -1625.95364794  8.5D-06  0.00093  0.00017  0.00077  0.00403  34249.7
         Total DFT energy =    -1625.953608148785
         Total DFT energy =    -1625.953651170232
@    2   -1625.95365117 -3.2D-06  0.00065  0.00013  0.00040  0.00299  37713.1
         Total DFT energy =    -1625.953648872498
         Total DFT energy =  -1625.953648872498
@    3   -1625.95364887  2.3D-06  0.00070  0.00014  0.00078  0.00494  38972.0
         Total DFT energy =    -1625.953654651057
         Total DFT energy =    -1625.953654842746
@    4   -1625.95365484 -6.0D-06  0.00057  0.00009  0.00058  0.00331  41088.2
         Total DFT energy =    -1625.953629119288
         Total DFT energy =    -1625.953656181208
@    5   -1625.95365618 -1.3D-06  0.00056  0.00007  0.00027  0.00219  44300.2
         Total DFT energy =    -1625.953656944310
         Total DFT energy =  -1625.953656944310
@    6   -1625.95365694 -7.6D-07  0.00041  0.00007  0.00044  0.00250  45682.5
         Total DFT energy =    -1625.953657949367
         Total DFT energy =  -1625.953657949367
@    7   -1625.95365795 -1.0D-06  0.00029  0.00007  0.00048  0.00332  47064.5
         Total DFT energy =    -1625.953658858725
         Total DFT energy =  -1625.953658858725
@    8   -1625.95365886 -9.1D-07  0.00049  0.00007  0.00062  0.00317  48446.2
         Total DFT energy =    -1625.953660663211

                       DFT Final Molecular Orbital Analysis
                       ------------------------------------

 Vector   40  Occ=2.000000D+00  E=-1.130174D+00

 Vector  269  Occ=0.000000D+00  E= 2.801221D-01

 Vector  270  Occ=0.000000D+00  E= 2.811382D-01

 Vector  271  Occ=0.000000D+00  E= 2.813786D-01

 Vector  272  Occ=0.000000D+00  E= 2.841844D-01

 Vector  273  Occ=0.000000D+00  E= 2.849482D-01

 Vector  274  Occ=0.000000D+00  E= 2.886635D-01

 Vector  275  Occ=0.000000D+00  E= 2.903123D-01

 Vector  276  Occ=0.000000D+00  E= 2.912736D-01

 Vector  277  Occ=0.000000D+00  E= 2.919164D-01

 Vector  278  Occ=0.000000D+00  E= 2.961007D-01

 Vector  279  Occ=0.000000D+00  E= 2.972329D-01

 Vector  280  Occ=0.000000D+00  E= 3.023568D-01

 Vector  281  Occ=0.000000D+00  E= 3.032850D-01

 Vector  282  Occ=0.000000D+00  E= 3.050158D-01

 Vector  283  Occ=0.000000D+00  E= 3.087855D-01

 Vector  284  Occ=0.000000D+00  E= 3.104433D-01

 Vector  285  Occ=0.000000D+00  E= 3.128920D-01

 Vector  286  Occ=0.000000D+00  E= 3.137378D-01

 Vector  287  Occ=0.000000D+00  E= 3.163291D-01

 Vector  288  Occ=0.000000D+00  E= 3.216459D-01

 Vector  289  Occ=0.000000D+00  E= 3.233216D-01

 Vector  290  Occ=0.000000D+00  E= 3.250259D-01

 Vector  291  Occ=0.000000D+00  E= 3.257374D-01

 Vector  292  Occ=0.000000D+00  E= 3.267312D-01

 Vector  293  Occ=0.000000D+00  E= 3.302292D-01

 Vector  294  Occ=0.000000D+00  E= 3.340160D-01

 Vector  295  Occ=0.000000D+00  E= 3.364277D-01

 Vector  296  Occ=0.000000D+00  E= 3.385232D-01

 Vector  297  Occ=0.000000D+00  E= 3.392488D-01

 Vector  298  Occ=0.000000D+00  E= 3.428606D-01

 Vector  299  Occ=0.000000D+00  E= 3.446702D-01

 Vector  300  Occ=0.000000D+00  E= 3.476575D-01

 Vector  301  Occ=0.000000D+00  E= 3.478413D-01

 Vector  302  Occ=0.000000D+00  E= 3.511833D-01

 Vector  303  Occ=0.000000D+00  E= 3.537961D-01

 Vector  304  Occ=0.000000D+00  E= 3.553419D-01

 Vector  305  Occ=0.000000D+00  E= 3.579024D-01

 Vector  306  Occ=0.000000D+00  E= 3.580938D-01

 Vector  307  Occ=0.000000D+00  E= 3.618953D-01

 Vector  308  Occ=0.000000D+00  E= 3.668160D-01

 Vector  309  Occ=0.000000D+00  E= 3.679232D-01

 Vector  310  Occ=0.000000D+00  E= 3.697981D-01

 Vector  311  Occ=0.000000D+00  E= 3.757461D-01

 Vector  312  Occ=0.000000D+00  E= 3.764390D-01

 Vector  313  Occ=0.000000D+00  E= 3.802911D-01

 Vector  314  Occ=0.000000D+00  E= 3.819467D-01

 Vector  315  Occ=0.000000D+00  E= 3.860756D-01

 Vector  316  Occ=0.000000D+00  E= 3.884697D-01

 Vector  317  Occ=0.000000D+00  E= 3.894729D-01

 Vector  318  Occ=0.000000D+00  E= 3.939253D-01

 Vector  319  Occ=0.000000D+00  E= 3.989600D-01

 Vector  320  Occ=0.000000D+00  E= 4.019445D-01

 Vector  321  Occ=0.000000D+00  E= 4.044958D-01

 Vector  322  Occ=0.000000D+00  E= 4.090476D-01

 Vector  323  Occ=0.000000D+00  E= 4.121180D-01

 Vector  324  Occ=0.000000D+00  E= 4.141180D-01

 Vector  325  Occ=0.000000D+00  E= 4.180560D-01

 Vector  326  Occ=0.000000D+00  E= 4.198494D-01

 Vector  327  Occ=0.000000D+00  E= 4.235740D-01

 Vector  328  Occ=0.000000D+00  E= 4.254790D-01

 Vector  329  Occ=0.000000D+00  E= 4.314115D-01

 Vector  330  Occ=0.000000D+00  E= 4.406353D-01

 Vector  331  Occ=0.000000D+00  E= 4.415842D-01

 Vector  332  Occ=0.000000D+00  E= 4.483678D-01

 Vector  333  Occ=0.000000D+00  E= 4.493224D-01

 Vector  334  Occ=0.000000D+00  E= 4.528780D-01

 Vector  335  Occ=0.000000D+00  E= 4.560950D-01

 Vector  336  Occ=0.000000D+00  E= 4.605424D-01

 Vector  337  Occ=0.000000D+00  E= 4.659083D-01

 Vector  338  Occ=0.000000D+00  E= 4.684261D-01

 Vector  339  Occ=0.000000D+00  E= 4.721111D-01

 Vector  340  Occ=0.000000D+00  E= 4.771151D-01

 Vector  341  Occ=0.000000D+00  E= 4.789429D-01

 Vector  342  Occ=0.000000D+00  E= 4.823873D-01

 Vector  343  Occ=0.000000D+00  E= 4.833880D-01

 Vector  344  Occ=0.000000D+00  E= 4.878966D-01

 Vector  345  Occ=0.000000D+00  E= 4.903629D-01

 Vector  346  Occ=0.000000D+00  E= 4.917546D-01

 Vector  347  Occ=0.000000D+00  E= 4.999505D-01

 Vector  348  Occ=0.000000D+00  E= 5.048945D-01

         Total DFT energy =  -1625.953660663211
@    9   -1625.95366066 -1.8D-06  0.00013  0.00004  0.00035  0.00172  49828.6
@    9   -1625.95366066 -1.8D-06  0.00013  0.00004  0.00035  0.00172  49828.6

 Output coordinates in angstroms (scale by  1.889725989 to convert to a.u.)

  No.       Tag          Charge          X              Y              Z
 ---- ---------------- ---------- -------------- -------------- --------------
    1 Fe                  26.0000     0.02619467     1.26647634     0.33479125
    2 B                    5.0000    -0.23998715    -1.84262356    -0.06752552
    3 C                    6.0000    -1.98894510     0.53632186     3.49623012
    4 H                    1.0000    -1.42476192    -0.34832566     3.80600970
    5 H                    1.0000    -2.79757431     0.69525097     4.21760905
    6 H                    1.0000    -1.31610749     1.39329110     3.53652717
    7 C                    6.0000    -2.55526850     0.34491656     2.09051927
    8 C                    6.0000    -3.42673558     1.51828612     1.67391825
    9 H                    1.0000    -2.87697293     2.45953055     1.74593276
   10 H                    1.0000    -4.30566718     1.59716203     2.32200984
   11 H                    1.0000    -3.77152300     1.40079975     0.64294540
   12 C                    6.0000    -3.29950308    -0.99379221     1.98323623
   13 H                    1.0000    -3.62747655    -1.39689750     2.94257517
   14 H                    1.0000    -4.15351113    -0.94617515     1.29828597
   15 C                    6.0000    -1.36956784    -1.14011378     0.87539365
   16 C                    6.0000     0.78623441     1.59343157    -3.23996014
   17 H                    1.0000     0.90151194     2.48883160    -2.62488533
   18 H                    1.0000     0.71093325     1.91218778    -4.28509781
   19 H                    1.0000     1.68875643     0.98533686    -3.13200466
   20 C                    6.0000    -0.44898564     0.80121084    -2.83190062
   21 C                    6.0000    -1.70707536     1.65591768    -2.94130877
   22 H                    1.0000    -2.59031854     1.08737652    -2.63640143
   23 H                    1.0000    -1.85528871     1.99371113    -3.97241135
   24 H                    1.0000    -1.62953028     2.54123631    -2.30543750
   25 C                    6.0000    -0.57903401    -0.51191651    -3.63265432
   26 H                    1.0000    -1.52115092    -0.59230627    -4.18054528
   27 H                    1.0000     0.25133819    -0.67458488    -4.32500176
   28 C                    6.0000    -0.37306214    -0.98747904    -1.44696363
   29 C                    6.0000     3.33798073     0.71858749     2.23480620
   30 H                    1.0000     3.17928344     1.78031187     2.03835301
   31 H                    1.0000     4.38278001     0.58974828     2.53683325
   32 H                    1.0000     2.70025446     0.43126913     3.07467999
   33 C                    6.0000     3.03376192    -0.12711668     1.00822927
   34 C                    6.0000     3.81641227     0.36271735    -0.20855872
   35 H                    1.0000     3.65566338    -0.30116401    -1.06314100
   36 H                    1.0000     4.89031732     0.39260996     0.00409941
   37 H                    1.0000     3.49499752     1.36571025    -0.49939454
   38 C                    6.0000     3.29621823    -1.61840959     1.27641548
   39 H                    1.0000     4.19249585    -2.00623570     0.78843407
   40 H                    1.0000     3.34069209    -1.85018647     2.34619189
   41 C                    6.0000     1.21941490    -1.35767866     0.49305667
   42 C                    6.0000    -0.40160267    -3.44563419    -0.10134217
   43 C                    6.0000    -0.75371756    -4.19735532    -1.22791027
   44 H                    1.0000    -0.91305638    -3.69935773    -2.17699106
   45 C                    6.0000    -0.90524999    -5.58174843    -1.17031355
   46 H                    1.0000    -1.17858771    -6.12954394    -2.06890742
   47 C                    6.0000    -0.70977617    -6.26145947     0.02395113
   48 H                    1.0000    -0.82694263    -7.34087734     0.07051705
   49 C                    6.0000    -0.36215483    -5.53967984     1.16182527
   50 H                    1.0000    -0.20652404    -6.05418695     2.10686666
   51 C                    6.0000    -0.21365512    -4.16108396     1.09103652
   52 H                    1.0000     0.05855962    -3.62505971     1.99792349
   53 C                    6.0000     0.23735463     2.71531820     1.70413868
   54 H                    1.0000    -0.67302820     2.97419359     2.24883178
   55 H                    1.0000     1.07560212     2.61021804     2.39378469
   56 C                    6.0000     0.48044904     3.59051160     0.56261197
   57 C                    6.0000    -0.59225421     4.20074924    -0.13355330
   58 H                    1.0000    -1.59818949     4.10409280     0.26881497
   59 C                    6.0000    -0.38214267     4.96860978    -1.26898237
   60 H                    1.0000    -1.22842857     5.44476832    -1.75701972
   61 C                    6.0000     0.90339272     5.14698786    -1.77650328
   62 H                    1.0000     1.06691698     5.75683578    -2.65950693
   63 C                    6.0000     1.97348346     4.53669660    -1.13107594
   64 H                    1.0000     2.98277763     4.67038189    -1.51121437
   65 C                    6.0000     1.76795234     3.76518622     0.00644553
   66 H                    1.0000     2.62311237     3.34007998     0.52340727
   67 N                    7.0000    -1.44782186     0.12133190     1.13442936
   68 N                    7.0000    -0.30127062     0.29611569    -1.45303702
   69 N                    7.0000     1.59316922    -0.13721123     0.67488830
   70 O                    8.0000    -0.54616690    -1.55818736    -2.65154148
   71 O                    8.0000    -2.33620873    -1.89449175     1.42113027
   72 O                    8.0000     2.15813647    -2.29072523     0.72672649

 Total times  cpu:    48764.5s     wall:    49828.6s
