============================== echo of input deck ==============================
echo

start feopt23_6311+g-star

geometry units angstroms noautosym noautoz
Fe	0.00458206	1.30243586	0.33430213
B	-0.23312255	-1.8105418	-0.07559004
C	-1.99467046	0.5573885	3.49293548
H	-1.4261388	-0.32424349	3.80336909
H	-2.80537072	0.71164063	4.21295327
H	-1.3267157	1.41812261	3.534297
C	-2.55771875	0.36338021	2.08633932
C	-3.4329414	1.53318698	1.66758181
H	-2.88527133	2.47580594	1.73601671
H	-4.31146898	1.61160957	2.31623063
H	-3.77828678	1.4119522	0.63719555
C	-3.29713987	-0.97797657	1.97825311
H	-3.62351317	-1.38273613	2.93742053
H	-4.15150455	-0.93301866	1.29352997
C	-1.3658824	-1.11804363	0.87137119
C	0.7398623	1.60701562	-3.27195814
H	0.89577482	2.4926316	-2.65212713
H	0.63726706	1.93782713	-4.31101861
H	1.63114797	0.977354	-3.19926126
C	-0.49943538	0.83977764	-2.82947289
C	-1.74211199	1.72001275	-2.90460646
H	-2.62727334	1.17147849	-2.56999378
H	-1.91518814	2.05593976	-3.93242542
H	-1.6272677	2.60708892	-2.27656881
C	-0.678254	-0.47040941	-3.62584865
H	-1.65232533	-0.54721247	-4.11595037
H	0.10800579	-0.63205302	-4.36776852
C	-0.38740582	-0.95203885	-1.45072465
C	3.32223284	0.75306692	2.25855649
H	3.17351275	1.81628189	2.06195334
H	4.36168684	0.61802338	2.57603112
H	2.67090028	0.46867925	3.08893919
C	3.03071553	-0.09181096	1.02809396
C	3.83156211	0.39044194	-0.18003904
H	3.68490879	-0.28039885	-1.03167674
H	4.90195433	0.42332811	0.04936894
H	3.51398185	1.39002369	-0.48542988
C	3.28647219	-1.58305118	1.30181918
H	4.19099913	-1.97201044	0.83035704
H	3.31118913	-1.81454646	2.37242845
C	1.22177268	-1.31864744	0.48980738
C	-0.37421353	-3.41566938	-0.1103915
C	-0.65410879	-4.1798079	-1.24864071
H	-0.77974468	-3.68926073	-2.20660647
C	-0.7773737	-5.56717665	-1.19078902
H	-0.99584058	-6.12480567	-2.09832746
C	-0.62380849	-6.23731517	0.01493018
H	-0.72009683	-7.31879493	0.06195347
C	-0.34506067	-5.50329911	1.16396752
H	-0.22134024	-6.01023946	2.11778678
C	-0.22472621	-4.12214918	1.0928826
H	-0.00597946	-3.57647325	2.00854574
C	0.19040264	2.74754206	1.71087698
H	-0.7213619	3.02041686	2.24573853
H	1.02089461	2.62583015	2.40729716
C	0.4601892	3.6100552	0.56769343
C	-0.58435646	4.27776978	-0.11993155
H	-1.59108875	4.2336834	0.28947877
C	-0.34205659	5.03136509	-1.25704604
H	-1.16512533	5.55234728	-1.73902264
C	0.94815163	5.14049925	-1.77592019
H	1.13689156	5.74092349	-2.66033815
C	1.98792632	4.47228467	-1.14120169
H	3.00006326	4.55072406	-1.5290949
C	1.74960619	3.71179153	-0.00129879
H	2.58405595	3.24309888	0.5106789
N	-1.4479999	0.14287759	1.13205653
N	-0.32169863	0.33205018	-1.45507896
N	1.59357188	-0.09859853	0.67709486
O	-0.58900186	-1.52028943	-2.65201988
O	-2.33122327	-1.87533992	1.4149593
O	2.15760931	-2.25295534	0.73205516
end

basis
 Fe library "Stuttgart RSC 1997 ECP"
 B library 6-311+g*
 C library 6-311+g*
 O library 6-311+g*
 N library 6-311+g*
 H library 6-311+g*
end

ecp
 Fe library "Stuttgart RSC 1997 ECP"
end

scf
 triplet
 direct
 maxiter 200
 thresh 1.0e-6
 tol2e 1.0e-9
 vectors output fescf_opt.movecs
end

task scf energy

dft
 direct
 grid fine
 xc pbe0
 rodft
 cgmin
 mult 3
 maxiter 200
 vectors input fescf_opt.movecs output feopt23_6311+g-star.movecs
end

driver
 maxiter 200
end

task dft optimize
================================================================================

         Total SCF energy =  -1617.288645523058

       Multipole analysis of the density wrt the origin
       ------------------------------------------------

     L   x y z        total         open         nuclear
     -   - - -        -----         ----         -------
     0   0 0 0     -0.000000     -2.000000    270.000000

     1   1 0 0     -0.068571     -0.004091     -0.124530
     1   0 1 0      1.267332     -4.856377    -24.105323
     1   0 0 1     -0.530773     -1.262911     -6.292304

     2   2 0 0   -153.548046     -1.514836   3362.075913
     2   1 1 0     -4.713490      0.213285    614.963647
     2   1 0 1      0.173024      0.011955   -161.699206
     2   0 2 0   -189.816658    -13.277117   7844.075418
     2   0 1 1     -8.221479     -2.685396   -572.771160

         Total DFT energy =    -1625.953714420891
@ Step       Energy      Delta E   Gmax     Grms     Xrms     Xmax   Walltime
@ ---- ---------------- -------- -------- -------- -------- -------- --------
@    0   -1625.95371442  0.0D+00  0.00294  0.00040  0.00000  0.00000  31601.9
         Total DFT energy =    -1625.953577060573
         Total DFT energy =    -1625.953705850344
@    1   -1625.95370585  8.6D-06  0.00104  0.00014  0.00084  0.00588  37785.4
         Total DFT energy =    -1625.953699942110
         Total DFT energy =    -1625.953709645924
@    2   -1625.95370965 -3.8D-06  0.00056  0.00011  0.00044  0.00432  40009.2
         Total DFT energy =    -1625.953676171119
         Total DFT energy =    -1625.953710949728
@    3   -1625.95371095 -1.3D-06  0.00049  0.00010  0.00027  0.00241  43509.3
         Total DFT energy =    -1625.953708173881
         Total DFT energy =  -1625.953708173881
@    4   -1625.95370817  2.8D-06  0.00063  0.00012  0.00079  0.00491  44827.9
         Total DFT energy =    -1625.953711262155
         Total DFT energy =  -1625.953711262155
@    5   -1625.95371126 -3.1D-06  0.00043  0.00010  0.00086  0.00677  46152.5
         Total DFT energy =    -1625.953712349273
         Total DFT energy =  -1625.953712349273
@    6   -1625.95371235 -1.1D-06  0.00039  0.00008  0.00091  0.00598  47599.6
         Total DFT energy =    -1625.953714838918
         Total DFT energy =  -1625.953714838918
@    7   -1625.95371484 -2.5D-06  0.00020  0.00003  0.00055  0.00356  49041.0
         Total DFT energy =    -1625.953715011381

                       DFT Final Molecular Orbital Analysis
                       ------------------------------------

 Vector   40  Occ=2.000000D+00  E=-1.130302D+00

 Vector  269  Occ=0.000000D+00  E= 2.797292D-01

 Vector  270  Occ=0.000000D+00  E= 2.812370D-01

 Vector  271  Occ=0.000000D+00  E= 2.827780D-01

 Vector  272  Occ=0.000000D+00  E= 2.843426D-01

 Vector  273  Occ=0.000000D+00  E= 2.856279D-01

 Vector  274  Occ=0.000000D+00  E= 2.887897D-01

 Vector  275  Occ=0.000000D+00  E= 2.900908D-01

 Vector  276  Occ=0.000000D+00  E= 2.912539D-01

 Vector  277  Occ=0.000000D+00  E= 2.921392D-01

 Vector  278  Occ=0.000000D+00  E= 2.951631D-01

 Vector  279  Occ=0.000000D+00  E= 2.968214D-01

 Vector  280  Occ=0.000000D+00  E= 3.028974D-01

 Vector  281  Occ=0.000000D+00  E= 3.033863D-01

 Vector  282  Occ=0.000000D+00  E= 3.053600D-01

 Vector  283  Occ=0.000000D+00  E= 3.084406D-01

 Vector  284  Occ=0.000000D+00  E= 3.099507D-01

 Vector  285  Occ=0.000000D+00  E= 3.129214D-01

 Vector  286  Occ=0.000000D+00  E= 3.143996D-01

 Vector  287  Occ=0.000000D+00  E= 3.164437D-01

 Vector  288  Occ=0.000000D+00  E= 3.217310D-01

 Vector  289  Occ=0.000000D+00  E= 3.236097D-01

 Vector  290  Occ=0.000000D+00  E= 3.257716D-01

 Vector  291  Occ=0.000000D+00  E= 3.266596D-01

 Vector  292  Occ=0.000000D+00  E= 3.272351D-01

 Vector  293  Occ=0.000000D+00  E= 3.311216D-01

 Vector  294  Occ=0.000000D+00  E= 3.345535D-01

 Vector  295  Occ=0.000000D+00  E= 3.370264D-01

 Vector  296  Occ=0.000000D+00  E= 3.373928D-01

 Vector  297  Occ=0.000000D+00  E= 3.397466D-01

 Vector  298  Occ=0.000000D+00  E= 3.437198D-01

 Vector  299  Occ=0.000000D+00  E= 3.445959D-01

 Vector  300  Occ=0.000000D+00  E= 3.473295D-01

 Vector  301  Occ=0.000000D+00  E= 3.477175D-01

 Vector  302  Occ=0.000000D+00  E= 3.507107D-01

 Vector  303  Occ=0.000000D+00  E= 3.526063D-01

 Vector  304  Occ=0.000000D+00  E= 3.552208D-01

 Vector  305  Occ=0.000000D+00  E= 3.584399D-01

 Vector  306  Occ=0.000000D+00  E= 3.592232D-01

 Vector  307  Occ=0.000000D+00  E= 3.614212D-01

 Vector  308  Occ=0.000000D+00  E= 3.666737D-01

 Vector  309  Occ=0.000000D+00  E= 3.680337D-01

 Vector  310  Occ=0.000000D+00  E= 3.694562D-01

 Vector  311  Occ=0.000000D+00  E= 3.763674D-01

 Vector  312  Occ=0.000000D+00  E= 3.781857D-01

 Vector  313  Occ=0.000000D+00  E= 3.800962D-01

 Vector  314  Occ=0.000000D+00  E= 3.826984D-01

 Vector  315  Occ=0.000000D+00  E= 3.864193D-01

 Vector  316  Occ=0.000000D+00  E= 3.886334D-01

 Vector  317  Occ=0.000000D+00  E= 3.896690D-01

 Vector  318  Occ=0.000000D+00  E= 3.937493D-01

 Vector  319  Occ=0.000000D+00  E= 3.992550D-01

 Vector  320  Occ=0.000000D+00  E= 4.027978D-01

 Vector  321  Occ=0.000000D+00  E= 4.046035D-01

 Vector  322  Occ=0.000000D+00  E= 4.085823D-01

 Vector  323  Occ=0.000000D+00  E= 4.112510D-01

 Vector  324  Occ=0.000000D+00  E= 4.134456D-01

 Vector  325  Occ=0.000000D+00  E= 4.181333D-01

 Vector  326  Occ=0.000000D+00  E= 4.200375D-01

 Vector  327  Occ=0.000000D+00  E= 4.226709D-01

 Vector  328  Occ=0.000000D+00  E= 4.266127D-01

 Vector  329  Occ=0.000000D+00  E= 4.302399D-01

 Vector  330  Occ=0.000000D+00  E= 4.411477D-01

 Vector  331  Occ=0.000000D+00  E= 4.421304D-01

 Vector  332  Occ=0.000000D+00  E= 4.488545D-01

 Vector  333  Occ=0.000000D+00  E= 4.501400D-01

 Vector  334  Occ=0.000000D+00  E= 4.526326D-01

 Vector  335  Occ=0.000000D+00  E= 4.566988D-01

 Vector  336  Occ=0.000000D+00  E= 4.621051D-01

 Vector  337  Occ=0.000000D+00  E= 4.665072D-01

 Vector  338  Occ=0.000000D+00  E= 4.682627D-01

 Vector  339  Occ=0.000000D+00  E= 4.724299D-01

 Vector  340  Occ=0.000000D+00  E= 4.767213D-01

 Vector  341  Occ=0.000000D+00  E= 4.795754D-01

 Vector  342  Occ=0.000000D+00  E= 4.827942D-01

 Vector  343  Occ=0.000000D+00  E= 4.834421D-01

 Vector  344  Occ=0.000000D+00  E= 4.878043D-01

 Vector  345  Occ=0.000000D+00  E= 4.909517D-01

 Vector  346  Occ=0.000000D+00  E= 4.921508D-01

 Vector  347  Occ=0.000000D+00  E= 4.992504D-01

 Vector  348  Occ=0.000000D+00  E= 5.031995D-01

         Total DFT energy =  -1625.953715011381
@    8   -1625.95371501 -1.7D-07  0.00020  0.00004  0.00026  0.00137  50486.9
@    8   -1625.95371501 -1.7D-07  0.00020  0.00004  0.00026  0.00137  50486.9

 Output coordinates in angstroms (scale by  1.889725989 to convert to a.u.)

  No.       Tag          Charge          X              Y              Z
 ---- ---------------- ---------- -------------- -------------- --------------
    1 Fe                  26.0000     0.00627055     1.27517224     0.33390252
    2 B                    5.0000    -0.23087243    -1.83744044    -0.07690894
    3 C                    6.0000    -1.99259021     0.53021313     3.49215895
    4 H                    1.0000    -1.42453884    -0.35170996     3.80264341
    5 H                    1.0000    -2.80349802     0.68463299     4.21189540
    6 H                    1.0000    -1.32428241     1.39064633     3.53384936
    7 C                    6.0000    -2.55492140     0.33636080     2.08534760
    8 C                    6.0000    -3.42985931     1.50634922     1.66612932
    9 H                    1.0000    -2.88238830     2.44903984     1.73473811
   10 H                    1.0000    -4.30844650     1.58460566     2.31473948
   11 H                    1.0000    -3.77532492     1.38530464     0.63576479
   12 C                    6.0000    -3.29486051    -1.00479321     1.97651008
   13 H                    1.0000    -3.62133867    -1.40990792     2.93553537
   14 H                    1.0000    -4.14925840    -0.95918067     1.29199233
   15 C                    6.0000    -1.36356671    -1.14514583     0.86990828
   16 C                    6.0000     0.74184513     1.57998447    -3.27343544
   17 H                    1.0000     0.89799448     2.46587086    -2.65405495
   18 H                    1.0000     0.63934273     1.91017824    -4.31270012
   19 H                    1.0000     1.63295289     0.95007717    -3.20054713
   20 C                    6.0000    -0.49770544     0.81322951    -2.83073514
   21 C                    6.0000    -1.74017090     1.69364894    -2.90602485
   22 H                    1.0000    -2.62529477     1.14523524    -2.57111604
   23 H                    1.0000    -1.91340052     2.02946928    -3.93384873
   24 H                    1.0000    -1.62515467     2.58072146    -2.27803703
   25 C                    6.0000    -0.67658140    -0.49698842    -3.62696754
   26 H                    1.0000    -1.65091424    -0.57407838    -4.11648906
   27 H                    1.0000     0.10927196    -0.65837944    -4.36935645
   28 C                    6.0000    -0.38546751    -0.97854669    -1.45186907
   29 C                    6.0000     3.32376746     0.72652084     2.25716189
   30 H                    1.0000     3.17521910     1.78978483     2.06066422
   31 H                    1.0000     4.36315219     0.59126531     2.57470678
   32 H                    1.0000     2.67232825     0.44225522     3.08752184
   33 C                    6.0000     3.03249562    -0.11842637     1.02673233
   34 C                    6.0000     3.83327865     0.36380399    -0.18131765
   35 H                    1.0000     3.68658178    -0.30710135    -1.03291446
   36 H                    1.0000     4.90369382     0.39659119     0.04796296
   37 H                    1.0000     3.51557504     1.36334579    -0.48661354
   38 C                    6.0000     3.28839351    -1.60957917     1.30070809
   39 H                    1.0000     4.19303872    -1.99854015     0.82941884
   40 H                    1.0000     3.31299172    -1.84091281     2.37134905
   41 C                    6.0000     1.22385567    -1.34555509     0.48821389
   42 C                    6.0000    -0.37221112    -3.44255701    -0.11185600
   43 C                    6.0000    -0.65212019    -4.20675462    -1.25004356
   44 H                    1.0000    -0.77774916    -3.71627378    -2.20803146
   45 C                    6.0000    -0.77529257    -5.59411757    -1.19212756
   46 H                    1.0000    -0.99339519    -6.15182543    -2.09968591
   47 C                    6.0000    -0.62171757    -6.26419138     0.01360084
   48 H                    1.0000    -0.71771421    -7.34568307     0.06064393
   49 C                    6.0000    -0.34316725    -5.53009772     1.16262365
   50 H                    1.0000    -0.21949933    -6.03700913     2.11646204
   51 C                    6.0000    -0.22291857    -4.14894985     1.09149742
   52 H                    1.0000    -0.00433555    -3.60320698     2.00715230
   53 C                    6.0000     0.19144582     2.72055717     1.70921977
   54 H                    1.0000    -0.72035694     2.99441924     2.24358886
   55 H                    1.0000     1.02135829     2.59795217     2.40610346
   56 C                    6.0000     0.46215894     3.58280982     0.56596186
   57 C                    6.0000    -0.58217586     4.25060456    -0.12175464
   58 H                    1.0000    -1.58885697     4.20619379     0.28775151
   59 C                    6.0000    -0.33974437     5.00468797    -1.25844871
   60 H                    1.0000    -1.16265972     5.52609586    -1.74017398
   61 C                    6.0000     0.95052286     5.11359381    -1.77728597
   62 H                    1.0000     1.13920120     5.71408578    -2.66170753
   63 C                    6.0000     1.99015591     4.44517305    -1.14264032
   64 H                    1.0000     3.00218206     4.52303541    -1.53095968
   65 C                    6.0000     1.75175222     3.68493052    -0.00244638
   66 H                    1.0000     2.58623751     3.21611231     0.50931980
   67 N                    7.0000    -1.44468511     0.11558672     1.13178906
   68 N                    7.0000    -0.32035263     0.30559036    -1.45621133
   69 N                    7.0000     1.59533116    -0.12538682     0.67556423
   70 O                    8.0000    -0.58639920    -1.54682290    -2.65321546
   71 O                    8.0000    -2.32908196    -1.90230591     1.41326857
   72 O                    8.0000     2.15971435    -2.27969380     0.73080428

 Total times  cpu:    49453.1s     wall:    50487.0s
